LAMMPS (29 Oct 2020)

variable TEMP		equal   300.0
variable PRESS 		equal   0.0
variable RUNTIME	equal   35000000         # (35x1e6 timesteps)
variable RESTART        equal   ${RUNTIME}/7  	 # frequency of writing restart file
variable RESTART        equal   35000000/7  	 
variable dumptrj	equal	500000

variable SEED  		equal  	12392
variable SEED2   	equal   $( v_SEED + 1099 )
variable SEED2   	equal   13491
variable SEED3  	equal   $( v_SEED + 80192 )
variable SEED3  	equal   92584
variable SEED4  	equal   $( v_SEED + 7102 )
variable SEED4  	equal   19494
variable SEED5 		equal   $( v_SEED + 30192 )
variable SEED5 		equal   42584

variable		vstep equal step

include 		"system.init"
    units      	   real
    atom_style     full
    pair_style     hybrid soft 25.0 gauss/wall 25.00 lj/cut/soft 2.0 0.5 40.00 john4
    bond_style     harmonic
    angle_style    harmonic
    neighbor  	   10.0 bin
    neigh_modify   every 1 delay 1 check yes
    boundary 	   p p f
    processors 	   * * 1
    special_bonds  lj 0.0 1.0 1.0 coul 0.0 1.0 1.0


#########		READ DATA FILE ######################
read_data		"NPC-NUP98_Capsid.data"
Reading data file ...
  orthogonal box = (0.0000000 0.0000000 0.0000000) to (2022.5000 2022.5000 3000.0000)
  1 by 1 by 1 MPI processor grid
  reading atoms ...
  525304 atoms
  scanning bonds ...
  112 = max bonds/atom
  scanning angles ...
  1 = max angles/atom
  reading bonds ...
  2881363 bonds
  reading angles ...
  184174 angles
Finding 1-2 1-3 1-4 neighbors ...
  special bond factors lj:    0.0      1.0      1.0     
  special bond factors coul:  0.0      1.0      1.0     
   113 = max # of 1-2 neighbors
   104 = max # of special neighbors
  special bonds CPU = 0.402 seconds
  read_data CPU = 3.116 seconds

include			"soft.ff"
### NPC-NPC volume exclusion
pair_coeff      1*2990     1*2990  soft   15.000  10.000
pair_coeff       1*847      1*847  soft   15.000  10.000
pair_coeff    848*2152   848*2152  soft   15.000  10.000
pair_coeff   2153*2467  2153*2467  soft   15.000  10.000
pair_coeff   2468*2818  2468*2818  soft   15.000  10.000
pair_coeff   2819*2866  2819*2866  soft   15.000  10.000
pair_coeff   2867*2990  2867*2990  soft   15.000  10.000

### NPC-Membrane volume exclusion
pair_coeff    1*2990     2991  soft  15.000  10.000
pair_coeff    1*2990     2992  soft  15.000  10.000
pair_coeff    1*2990     2993  soft  15.000  10.000

### Capsid volume exclusion
pair_coeff      1*2993  2994*3039  soft   15.000  10.000

pair_coeff   2994*3039  2994*3039  soft   15.000  10.000

include                 "John4.ff"
######### DEFINE FORCEFIELD VARIABLES HERE ###############
variable Boltzmann    equal  1.3806e-23
variable Avogadro     equal  6.0221e+23

variable Temperature  equal  300.0
variable kBT          equal  $( (v_Boltzmann * v_Temperature * v_Avogadro) / (4.184 * 1000.0) ) # in kcal/mol
variable kBT          equal  0.59613608460803058087 


variable BEAD_SIZE    equal  12.0
variable STICKYNESS   equal  5.0
variable TAIL_BEADS   equal  3.0

variable BEND         equal  5.0

variable R  equal $( v_BEAD_SIZE )
variable R  equal 12
variable RC equal $( 2.0 * v_R )
variable RC equal 24
variable A  equal $( (1.0/v_R) * (50.0*7.5)                  * v_kBT )
variable A  equal 18.629252644000970918
variable B  equal $( (1.0/v_R) * (v_STICKYNESS/v_TAIL_BEADS) * v_kBT )
variable B  equal 0.082796678417782085257

variable R_HH equal $( 0.75 * v_R )
variable R_HH equal 9
variable A_HH equal $( (1.0/v_R_HH) * (20.0*7.5) * v_kBT )
variable A_HH equal 9.9356014101338487876

variable BOND_R equal $( 16.0 / v_TAIL_BEADS )
variable BOND_R equal 5.3333333333333330373
variable BOND_K equal $( v_BEND * v_kBT )
variable BOND_K equal 2.9806804230401553468
variable BEND_K equal $( v_BEND * v_kBT )
variable BEND_K equal 2.9806804230401553468


print ""

print "#"
#
print "# kBT (kcal/mol)  = ${kBT}"
# kBT (kcal/mol)  = 0.596136084608031
print "#"
#
print "# BEAD_SIZE (Angstrom) = $(v_BEAD_SIZE)"
# BEAD_SIZE (Angstrom) = 12
print "# STICKYNESS (kBT)     = $(v_STICKYNESS)"
# STICKYNESS (kBT)     = 5
print "# TAIL_BEADS           = $(v_TAIL_BEADS)"
# TAIL_BEADS           = 3
print "#"
#
print "# R  (Ang.)     = $(v_R)"
# R  (Ang.)     = 12
print "# RC (Ang.)     = $(v_RC)"
# RC (Ang.)     = 24
print "# A (kBT)       = $(v_A/v_kBT)"
# A (kBT)       = 31.250000000000049738
print "# B (kBT)       = $(v_B/v_kBT)"
# B (kBT)       = 0.13888888888888892281
print "#"
#
print "# BOND_R (Ang.) = $(v_BOND_R)"
# BOND_R (Ang.) = 5.3333333333333303727
print "# BOND_K (kBT)  = $(v_BOND_K/v_kBT)"
# BOND_K (kBT)  = 5.0000000000000079936
print "# BEND_K (kBT)  = $(v_BEND_K/v_kBT)"
# BEND_K (kBT)  = 5.0000000000000079936
print "#"
#
print ""


##########################################################
include			"Nup155_intra.ff"
bond_coeff       1   0.500000     9.9103
bond_coeff       2   0.500000    13.4283
bond_coeff       3   0.500000    18.0172
bond_coeff       4   0.500000    21.9704
bond_coeff       5   0.500000    24.2883
bond_coeff       6   0.500000    24.9961
bond_coeff       7   0.500000    28.3950
bond_coeff       8   0.500000    22.7190
bond_coeff       9   0.500000    20.4929
bond_coeff      10   0.500000     9.5430
bond_coeff      11   0.500000    13.9346
bond_coeff      12   0.500000    18.0472
bond_coeff      13   0.500000    26.4786
bond_coeff      14   0.500000    29.7350
bond_coeff      15   0.500000    21.8942
bond_coeff      16   0.500000    23.6854
bond_coeff      17   0.500000    26.1817
bond_coeff      18   0.500000    19.8918
bond_coeff      19   0.500000    17.0577
bond_coeff      20   0.500000    11.1267
bond_coeff      21   0.500000    15.3419
bond_coeff      22   0.500000    23.9614
bond_coeff      23   0.500000    26.8189
bond_coeff      24   0.500000    29.7210
bond_coeff      25   0.500000    26.6441
bond_coeff      26   0.500000    29.5556
bond_coeff      27   0.500000    27.9104
bond_coeff      28   0.500000    18.2662
bond_coeff      29   0.500000    19.7637
bond_coeff      30   0.500000    26.2529
bond_coeff      31   0.500000    22.1170
bond_coeff      32   0.500000    15.8021
bond_coeff      33   0.500000    13.2068
bond_coeff      34   0.500000     8.2591
bond_coeff      35   0.500000    12.7133
bond_coeff      36   0.500000    21.2482
bond_coeff      37   0.500000    29.8258
bond_coeff      38   0.500000    29.2592
bond_coeff      39   0.500000    27.7662
bond_coeff      40   0.500000    25.9665
bond_coeff      41   0.500000    28.3645
bond_coeff      42   0.500000    26.9177
bond_coeff      43   0.500000    18.5035
bond_coeff      44   0.500000    21.5982
bond_coeff      45   0.500000    27.7687
bond_coeff      46   0.500000    22.7985
bond_coeff      47   0.500000    15.8234
bond_coeff      48   0.500000    12.1513
bond_coeff      49   0.500000     9.0141
bond_coeff      50   0.500000    17.6923
bond_coeff      51   0.500000    28.3871
bond_coeff      52   0.500000    28.6190
bond_coeff      53   0.500000    29.2826
bond_coeff      54   0.500000    29.1667
bond_coeff      55   0.500000    27.7663
bond_coeff      56   0.500000    24.0000
bond_coeff      57   0.500000    21.7588
bond_coeff      58   0.500000    27.3624
bond_coeff      59   0.500000    28.1670
bond_coeff      60   0.500000    25.5451
bond_coeff      61   0.500000    26.4122
bond_coeff      62   0.500000    22.6965
bond_coeff      63   0.500000    14.7021
bond_coeff      64   0.500000    18.7580
bond_coeff      65   0.500000    25.0427
bond_coeff      66   0.500000    19.7823
bond_coeff      67   0.500000    12.4815
bond_coeff      68   0.500000     8.0646
bond_coeff      69   0.500000    13.9033
bond_coeff      70   0.500000    24.8386
bond_coeff      71   0.500000    29.8463
bond_coeff      72   0.500000    29.4729
bond_coeff      73   0.500000    27.2498
bond_coeff      74   0.500000    24.2370
bond_coeff      75   0.500000    24.5185
bond_coeff      76   0.500000    26.5582
bond_coeff      77   0.500000    25.6078
bond_coeff      78   0.500000    29.2812
bond_coeff      79   0.500000    27.0680
bond_coeff      80   0.500000    29.6063
bond_coeff      81   0.500000    26.4987
bond_coeff      82   0.500000    25.0519
bond_coeff      83   0.500000    27.4518
bond_coeff      84   0.500000    26.2610
bond_coeff      85   0.500000    19.5606
bond_coeff      86   0.500000    19.1001
bond_coeff      87   0.500000    26.6636
bond_coeff      88   0.500000    28.8769
bond_coeff      89   0.500000    27.0401
bond_coeff      90   0.500000    26.3101
bond_coeff      91   0.500000    20.4334
bond_coeff      92   0.500000    14.8006
bond_coeff      93   0.500000    20.0436
bond_coeff      94   0.500000    25.3682
bond_coeff      95   0.500000    19.2868
bond_coeff      96   0.500000    11.8173
bond_coeff      97   0.500000     8.6851
bond_coeff      98   0.500000    19.6168
bond_coeff      99   0.500000    27.9378
bond_coeff     100   0.500000    25.6638
bond_coeff     101   0.500000    25.2723
bond_coeff     102   0.500000    28.3252
bond_coeff     103   0.500000    28.4531
bond_coeff     104   0.500000    25.0442
bond_coeff     105   0.500000    22.3020
bond_coeff     106   0.500000    22.7331
bond_coeff     107   0.500000    24.1383
bond_coeff     108   0.500000    23.1513
bond_coeff     109   0.500000    27.6393
bond_coeff     110   0.500000    25.8181
bond_coeff     111   0.500000    27.6732
bond_coeff     112   0.500000    24.1138
bond_coeff     113   0.500000    21.3434
bond_coeff     114   0.500000    23.5981
bond_coeff     115   0.500000    22.4415
bond_coeff     116   0.500000    15.6761
bond_coeff     117   0.500000    16.8767
bond_coeff     118   0.500000    26.0279
bond_coeff     119   0.500000    27.9376
bond_coeff     120   0.500000    25.4821
bond_coeff     121   0.500000    22.9855
bond_coeff     122   0.500000    16.1533
bond_coeff     123   0.500000    12.8153
bond_coeff     124   0.500000    20.8412
bond_coeff     125   0.500000    26.7144
bond_coeff     126   0.500000    20.8109
bond_coeff     127   0.500000    13.7558
bond_coeff     128   0.500000     7.8571
bond_coeff     129   0.500000    11.5748
bond_coeff     130   0.500000    24.3891
bond_coeff     131   0.500000    27.1602
bond_coeff     132   0.500000    26.8404
bond_coeff     133   0.500000    28.4977
bond_coeff     134   0.500000    24.6433
bond_coeff     135   0.500000    27.3228
bond_coeff     136   0.500000    29.0767
bond_coeff     137   0.500000    27.5960
bond_coeff     138   0.500000    19.8487
bond_coeff     139   0.500000    19.0771
bond_coeff     140   0.500000    21.0041
bond_coeff     141   0.500000    27.8165
bond_coeff     142   0.500000    27.0130
bond_coeff     143   0.500000    22.5542
bond_coeff     144   0.500000    18.9430
bond_coeff     145   0.500000    18.9114
bond_coeff     146   0.500000    19.0267
bond_coeff     147   0.500000    18.0193
bond_coeff     148   0.500000    23.4605
bond_coeff     149   0.500000    29.4739
bond_coeff     150   0.500000    29.2145
bond_coeff     151   0.500000    29.4118
bond_coeff     152   0.500000    28.5304
bond_coeff     153   0.500000    23.4453
bond_coeff     154   0.500000    24.9849
bond_coeff     155   0.500000    21.5407
bond_coeff     156   0.500000    17.1183
bond_coeff     157   0.500000    17.4681
bond_coeff     158   0.500000    15.2967
bond_coeff     159   0.500000     9.4236
bond_coeff     160   0.500000    16.3815
bond_coeff     161   0.500000    27.8929
bond_coeff     162   0.500000    28.2417
bond_coeff     163   0.500000    22.7311
bond_coeff     164   0.500000    13.1475
bond_coeff     165   0.500000    16.3896
bond_coeff     166   0.500000    25.9849
bond_coeff     167   0.500000    25.3495
bond_coeff     168   0.500000    19.6215
bond_coeff     169   0.500000    14.7422
bond_coeff     170   0.500000    12.8585
bond_coeff     171   0.500000    28.8400
bond_coeff     172   0.500000    27.5575
bond_coeff     173   0.500000    28.2083
bond_coeff     174   0.500000    27.9168
bond_coeff     175   0.500000    25.4324
bond_coeff     176   0.500000    22.2270
bond_coeff     177   0.500000    23.7066
bond_coeff     178   0.500000    20.9785
bond_coeff     179   0.500000    25.2714
bond_coeff     180   0.500000    27.9539
bond_coeff     181   0.500000    18.8466
bond_coeff     182   0.500000    22.0137
bond_coeff     183   0.500000    28.9802
bond_coeff     184   0.500000    24.5967
bond_coeff     185   0.500000    29.5369
bond_coeff     186   0.500000    29.3949
bond_coeff     187   0.500000    20.5596
bond_coeff     188   0.500000    26.3230
bond_coeff     189   0.500000    27.0920
bond_coeff     190   0.500000    24.6099
bond_coeff     191   0.500000    23.1857
bond_coeff     192   0.500000    23.9893
bond_coeff     193   0.500000    22.3074
bond_coeff     194   0.500000    22.5200
bond_coeff     195   0.500000    13.7293
bond_coeff     196   0.500000    10.8723
bond_coeff     197   0.500000    14.4739
bond_coeff     198   0.500000    25.4800
bond_coeff     199   0.500000    23.8271
bond_coeff     200   0.500000    20.2550
bond_coeff     201   0.500000    19.2085
bond_coeff     202   0.500000    20.7886
bond_coeff     203   0.500000    19.6334
bond_coeff     204   0.500000    19.9065
bond_coeff     205   0.500000    25.4348
bond_coeff     206   0.500000    29.8498
bond_coeff     207   0.500000    27.9456
bond_coeff     208   0.500000    21.9763
bond_coeff     209   0.500000    19.8238
bond_coeff     210   0.500000    15.4845
bond_coeff     211   0.500000    10.2567
bond_coeff     212   0.500000    17.8043
bond_coeff     213   0.500000    29.0172
bond_coeff     214   0.500000    22.1440
bond_coeff     215   0.500000    11.9860
bond_coeff     216   0.500000    21.7280
bond_coeff     217   0.500000    27.0465
bond_coeff     218   0.500000    23.7057
bond_coeff     219   0.500000    16.0439
bond_coeff     220   0.500000    23.3858
bond_coeff     221   0.500000    25.3421
bond_coeff     222   0.500000    26.0708
bond_coeff     223   0.500000    26.9547
bond_coeff     224   0.500000    26.0014
bond_coeff     225   0.500000    26.0574
bond_coeff     226   0.500000    29.0898
bond_coeff     227   0.500000    19.1936
bond_coeff     228   0.500000    24.9355
bond_coeff     229   0.500000    28.4432
bond_coeff     230   0.500000    29.3072
bond_coeff     231   0.500000    26.6436
bond_coeff     232   0.500000    16.6979
bond_coeff     233   0.500000    16.8961
bond_coeff     234   0.500000    27.7185
bond_coeff     235   0.500000    26.2247
bond_coeff     236   0.500000    20.0275
bond_coeff     237   0.500000    15.6432
bond_coeff     238   0.500000    11.9917
bond_coeff     239   0.500000    11.6675
bond_coeff     240   0.500000     9.6655
bond_coeff     241   0.500000    18.0023
bond_coeff     242   0.500000    23.0043
bond_coeff     243   0.500000    28.1363
bond_coeff     244   0.500000    29.5177
bond_coeff     245   0.500000    22.3540
bond_coeff     246   0.500000    15.2426
bond_coeff     247   0.500000    22.2170
bond_coeff     248   0.500000    26.8858
bond_coeff     249   0.500000    25.8135
bond_coeff     250   0.500000    29.5475
bond_coeff     251   0.500000    28.7238
bond_coeff     252   0.500000    23.3436
bond_coeff     253   0.500000    29.8556
bond_coeff     254   0.500000    27.5483
bond_coeff     255   0.500000    29.2378
bond_coeff     256   0.500000    29.1657
bond_coeff     257   0.500000    24.9311
bond_coeff     258   0.500000    23.7177
bond_coeff     259   0.500000    20.6805
bond_coeff     260   0.500000    20.6128
bond_coeff     261   0.500000    21.7519
bond_coeff     262   0.500000    24.1945
bond_coeff     263   0.500000    16.8648
bond_coeff     264   0.500000    11.5955
bond_coeff     265   0.500000    15.2265
bond_coeff     266   0.500000    27.6625
bond_coeff     267   0.500000    25.1428
bond_coeff     268   0.500000    23.5320
bond_coeff     269   0.500000    25.5632
bond_coeff     270   0.500000    28.3860
bond_coeff     271   0.500000    26.7207
bond_coeff     272   0.500000    28.0866
bond_coeff     273   0.500000    29.1373
bond_coeff     274   0.500000    24.0724
bond_coeff     275   0.500000    20.5544
bond_coeff     276   0.500000    25.1925
bond_coeff     277   0.500000    27.2511
bond_coeff     278   0.500000    19.9572
bond_coeff     279   0.500000     8.8730
bond_coeff     280   0.500000    13.5291
bond_coeff     281   0.500000    16.8241
bond_coeff     282   0.500000    14.0402
bond_coeff     283   0.500000    14.2019
bond_coeff     284   0.500000    23.0179
bond_coeff     285   0.500000    27.3508
bond_coeff     286   0.500000    22.7935
bond_coeff     287   0.500000    29.5795
bond_coeff     288   0.500000    29.5303
bond_coeff     289   0.500000    20.8662
bond_coeff     290   0.500000    26.4571
bond_coeff     291   0.500000    25.3337
bond_coeff     292   0.500000    29.6352
bond_coeff     293   0.500000    26.0503
bond_coeff     294   0.500000    22.7694
bond_coeff     295   0.500000    21.2023
bond_coeff     296   0.500000    27.2572
bond_coeff     297   0.500000    21.0426
bond_coeff     298   0.500000    11.1255
bond_coeff     299   0.500000    11.9329
bond_coeff     300   0.500000    17.5914
bond_coeff     301   0.500000    18.1513
bond_coeff     302   0.500000    29.1218
bond_coeff     303   0.500000    24.5877
bond_coeff     304   0.500000    13.9414
bond_coeff     305   0.500000    19.7730
bond_coeff     306   0.500000    21.8250
bond_coeff     307   0.500000    24.4902
bond_coeff     308   0.500000    25.6201
bond_coeff     309   0.500000    16.2832
bond_coeff     310   0.500000    25.0748
bond_coeff     311   0.500000    11.1295
bond_coeff     312   0.500000     9.0179
bond_coeff     313   0.500000    25.5551
bond_coeff     314   0.500000    27.7870
bond_coeff     315   0.500000    26.0573
bond_coeff     316   0.500000    27.6590
bond_coeff     317   0.500000    21.3042
bond_coeff     318   0.500000    15.5687
bond_coeff     319   0.500000    14.5165
bond_coeff     320   0.500000     9.7494
bond_coeff     321   0.500000    11.5499
bond_coeff     322   0.500000    20.6337
bond_coeff     323   0.500000    22.4426
bond_coeff     324   0.500000    29.9989
bond_coeff     325   0.500000    23.4204
bond_coeff     326   0.500000    22.4124
bond_coeff     327   0.500000    28.6465
bond_coeff     328   0.500000    29.0351
bond_coeff     329   0.500000    29.6655
bond_coeff     330   0.500000    25.8592
bond_coeff     331   0.500000    24.7714
bond_coeff     332   0.500000    28.5842
bond_coeff     333   0.500000    28.5151
bond_coeff     334   0.500000    24.9115
bond_coeff     335   0.500000    27.8576
bond_coeff     336   0.500000    10.8774
bond_coeff     337   0.500000    10.6948
bond_coeff     338   0.500000    21.9862
bond_coeff     339   0.500000    28.2839
bond_coeff     340   0.500000    25.3919
bond_coeff     341   0.500000    26.2278
bond_coeff     342   0.500000    27.0405
bond_coeff     343   0.500000    28.7699
bond_coeff     344   0.500000    26.1350
bond_coeff     345   0.500000    19.0380
bond_coeff     346   0.500000    14.7444
bond_coeff     347   0.500000    22.7510
bond_coeff     348   0.500000    21.6203
bond_coeff     349   0.500000    18.3513
bond_coeff     350   0.500000    15.5070
bond_coeff     351   0.500000    16.1911
bond_coeff     352   0.500000    21.2068
bond_coeff     353   0.500000    27.6368
bond_coeff     354   0.500000    12.5056
bond_coeff     355   0.500000    15.6332
bond_coeff     356   0.500000    16.4938
bond_coeff     357   0.500000    21.6023
bond_coeff     358   0.500000    25.2572
bond_coeff     359   0.500000    19.8243
bond_coeff     360   0.500000    25.6226
bond_coeff     361   0.500000    15.3968
bond_coeff     362   0.500000    11.3647
bond_coeff     363   0.500000    26.7509
bond_coeff     364   0.500000    29.4898
bond_coeff     365   0.500000    23.7057
bond_coeff     366   0.500000    23.3774
bond_coeff     367   0.500000    18.3411
bond_coeff     368   0.500000    19.6142
bond_coeff     369   0.500000    28.1194
bond_coeff     370   0.500000    27.6233
bond_coeff     371   0.500000    25.2925
bond_coeff     372   0.500000    26.9777
bond_coeff     373   0.500000    27.3565
bond_coeff     374   0.500000    29.4197
bond_coeff     375   0.500000    27.1241
bond_coeff     376   0.500000    25.2151
bond_coeff     377   0.500000    29.7709
bond_coeff     378   0.500000    12.3961
bond_coeff     379   0.500000    24.0474
bond_coeff     380   0.500000    27.7967
bond_coeff     381   0.500000    22.9987
bond_coeff     382   0.500000    17.2808
bond_coeff     383   0.500000    26.1799
bond_coeff     384   0.500000    27.1994
bond_coeff     385   0.500000    23.8453
bond_coeff     386   0.500000    21.3794
bond_coeff     387   0.500000    21.3577
bond_coeff     388   0.500000    26.0913
bond_coeff     389   0.500000    17.7423
bond_coeff     390   0.500000    18.0242
bond_coeff     391   0.500000    18.5239
bond_coeff     392   0.500000    24.8165
bond_coeff     393   0.500000    25.2272
bond_coeff     394   0.500000    29.7316
bond_coeff     395   0.500000    18.4651
bond_coeff     396   0.500000    13.6349
bond_coeff     397   0.500000    28.3722
bond_coeff     398   0.500000    27.7579
bond_coeff     399   0.500000    22.5543
bond_coeff     400   0.500000    23.2283
bond_coeff     401   0.500000    25.3193
bond_coeff     402   0.500000    27.6599
bond_coeff     403   0.500000    29.5785
bond_coeff     404   0.500000    26.9798
bond_coeff     405   0.500000    23.9650
bond_coeff     406   0.500000    27.4413
bond_coeff     407   0.500000    29.2607
bond_coeff     408   0.500000    26.8043
bond_coeff     409   0.500000    29.2693
bond_coeff     410   0.500000    24.9498
bond_coeff     411   0.500000    22.2507
bond_coeff     412   0.500000    26.9242
bond_coeff     413   0.500000    11.3263
bond_coeff     414   0.500000    21.7831
bond_coeff     415   0.500000    28.9140
bond_coeff     416   0.500000    27.9041
bond_coeff     417   0.500000    25.3753
bond_coeff     418   0.500000    28.0867
bond_coeff     419   0.500000    21.2169
bond_coeff     420   0.500000    29.4014
bond_coeff     421   0.500000    27.7738
bond_coeff     422   0.500000    26.1011
bond_coeff     423   0.500000    24.6212
bond_coeff     424   0.500000    23.1040
bond_coeff     425   0.500000    17.8875
bond_coeff     426   0.500000    18.9563
bond_coeff     427   0.500000    25.1616
bond_coeff     428   0.500000    27.0055
bond_coeff     429   0.500000    29.7678
bond_coeff     430   0.500000    17.8855
bond_coeff     431   0.500000    13.1156
bond_coeff     432   0.500000    29.5547
bond_coeff     433   0.500000    29.8257
bond_coeff     434   0.500000    25.6975
bond_coeff     435   0.500000    24.1171
bond_coeff     436   0.500000    29.9204
bond_coeff     437   0.500000    29.5964
bond_coeff     438   0.500000    28.2765
bond_coeff     439   0.500000    21.1460
bond_coeff     440   0.500000    24.9168
bond_coeff     441   0.500000    28.2769
bond_coeff     442   0.500000    26.0660
bond_coeff     443   0.500000    22.2705
bond_coeff     444   0.500000    18.3716
bond_coeff     445   0.500000    21.6464
bond_coeff     446   0.500000    27.4673
bond_coeff     447   0.500000    26.5596
bond_coeff     448   0.500000    26.8640
bond_coeff     449   0.500000    23.8438
bond_coeff     450   0.500000    25.3441
bond_coeff     451   0.500000    21.8405
bond_coeff     452   0.500000    24.6543
bond_coeff     453   0.500000    20.7782
bond_coeff     454   0.500000    18.7715
bond_coeff     455   0.500000    23.8700
bond_coeff     456   0.500000    27.7820
bond_coeff     457   0.500000    29.5345
bond_coeff     458   0.500000    18.0738
bond_coeff     459   0.500000    26.3757
bond_coeff     460   0.500000    25.0461
bond_coeff     461   0.500000    23.2988
bond_coeff     462   0.500000    21.8401
bond_coeff     463   0.500000    14.9405
bond_coeff     464   0.500000    22.5616
bond_coeff     465   0.500000    23.9546
bond_coeff     466   0.500000    23.8470
bond_coeff     467   0.500000    20.8989
bond_coeff     468   0.500000    17.6517
bond_coeff     469   0.500000    27.5776
bond_coeff     470   0.500000    17.3454
bond_coeff     471   0.500000    11.8054
bond_coeff     472   0.500000    12.6764
bond_coeff     473   0.500000    18.8446
bond_coeff     474   0.500000    25.0190
bond_coeff     475   0.500000    21.3894
bond_coeff     476   0.500000    29.2750
bond_coeff     477   0.500000    24.0725
bond_coeff     478   0.500000    15.8561
bond_coeff     479   0.500000    11.7815
bond_coeff     480   0.500000    24.7619
bond_coeff     481   0.500000    26.9773
bond_coeff     482   0.500000    27.9715
bond_coeff     483   0.500000    23.7514
bond_coeff     484   0.500000    22.7010
bond_coeff     485   0.500000    27.5023
bond_coeff     486   0.500000    22.7943
bond_coeff     487   0.500000    26.7585
bond_coeff     488   0.500000    29.0278
bond_coeff     489   0.500000    24.1883
bond_coeff     490   0.500000    26.3106
bond_coeff     491   0.500000    29.9079
bond_coeff     492   0.500000    27.1495
bond_coeff     493   0.500000    29.3353
bond_coeff     494   0.500000    25.8168
bond_coeff     495   0.500000    24.5945
bond_coeff     496   0.500000    29.6767
bond_coeff     497   0.500000    11.6985
bond_coeff     498   0.500000    20.2832
bond_coeff     499   0.500000    18.4502
bond_coeff     500   0.500000    16.9423
bond_coeff     501   0.500000    26.8741
bond_coeff     502   0.500000    29.3471
bond_coeff     503   0.500000    23.9370
bond_coeff     504   0.500000    17.6186
bond_coeff     505   0.500000    22.8510
bond_coeff     506   0.500000    22.1177
bond_coeff     507   0.500000    22.9343
bond_coeff     508   0.500000    20.8537
bond_coeff     509   0.500000    16.2049
bond_coeff     510   0.500000    29.1548
bond_coeff     511   0.500000    19.0699
bond_coeff     512   0.500000     8.2372
bond_coeff     513   0.500000    11.0567
bond_coeff     514   0.500000    15.0009
bond_coeff     515   0.500000    21.3253
bond_coeff     516   0.500000    17.0452
bond_coeff     517   0.500000    24.8607
bond_coeff     518   0.500000    18.4467
bond_coeff     519   0.500000    11.5441
bond_coeff     520   0.500000     9.1717
bond_coeff     521   0.500000    18.4481
bond_coeff     522   0.500000    26.0613
bond_coeff     523   0.500000    29.3683
bond_coeff     524   0.500000    23.4709
bond_coeff     525   0.500000    26.0365
bond_coeff     526   0.500000    23.2241
bond_coeff     527   0.500000    19.9964
bond_coeff     528   0.500000    25.6116
bond_coeff     529   0.500000    21.6548
bond_coeff     530   0.500000    24.6217
bond_coeff     531   0.500000    25.7749
bond_coeff     532   0.500000    18.6290
bond_coeff     533   0.500000    23.4567
bond_coeff     534   0.500000    29.5697
bond_coeff     535   0.500000    24.0258
bond_coeff     536   0.500000    24.5837
bond_coeff     537   0.500000    29.8292
bond_coeff     538   0.500000    29.9747
bond_coeff     539   0.500000    26.3013
bond_coeff     540   0.500000    27.7610
bond_coeff     541   0.500000    25.1461
bond_coeff     542   0.500000    25.5396
bond_coeff     543   0.500000     9.1715
bond_coeff     544   0.500000     7.8819
bond_coeff     545   0.500000    10.7058
bond_coeff     546   0.500000    19.2428
bond_coeff     547   0.500000    25.0202
bond_coeff     548   0.500000    26.1980
bond_coeff     549   0.500000    24.3812
bond_coeff     550   0.500000    28.7806
bond_coeff     551   0.500000    27.4548
bond_coeff     552   0.500000    20.0793
bond_coeff     553   0.500000    27.1641
bond_coeff     554   0.500000    10.6135
bond_coeff     555   0.500000    14.1737
bond_coeff     556   0.500000    12.4395
bond_coeff     557   0.500000    18.9907
bond_coeff     558   0.500000    17.0720
bond_coeff     559   0.500000    18.8149
bond_coeff     560   0.500000    11.7484
bond_coeff     561   0.500000    15.2821
bond_coeff     562   0.500000    16.6643
bond_coeff     563   0.500000     9.5711
bond_coeff     564   0.500000    21.0561
bond_coeff     565   0.500000    29.4612
bond_coeff     566   0.500000    25.3653
bond_coeff     567   0.500000    29.9732
bond_coeff     568   0.500000    24.1365
bond_coeff     569   0.500000    24.8937
bond_coeff     570   0.500000    23.4991
bond_coeff     571   0.500000    17.4833
bond_coeff     572   0.500000    19.5127
bond_coeff     573   0.500000    25.6710
bond_coeff     574   0.500000    22.3966
bond_coeff     575   0.500000    18.2051
bond_coeff     576   0.500000    24.9805
bond_coeff     577   0.500000    29.6362
bond_coeff     578   0.500000    27.4804
bond_coeff     579   0.500000    29.6475
bond_coeff     580   0.500000    29.6181
bond_coeff     581   0.500000    28.4762
bond_coeff     582   0.500000    26.3258
bond_coeff     583   0.500000    29.8296
bond_coeff     584   0.500000    13.0227
bond_coeff     585   0.500000    20.1120
bond_coeff     586   0.500000    28.5124
bond_coeff     587   0.500000    18.8516
bond_coeff     588   0.500000    21.7632
bond_coeff     589   0.500000    18.9385
bond_coeff     590   0.500000    25.0501
bond_coeff     591   0.500000    24.4416
bond_coeff     592   0.500000    21.8918
bond_coeff     593   0.500000    16.5195
bond_coeff     594   0.500000    22.3972
bond_coeff     595   0.500000    24.3710
bond_coeff     596   0.500000    12.8420
bond_coeff     597   0.500000    25.0824
bond_coeff     598   0.500000    29.3200
bond_coeff     599   0.500000    25.6447
bond_coeff     600   0.500000    20.3427
bond_coeff     601   0.500000    17.9254
bond_coeff     602   0.500000    21.6504
bond_coeff     603   0.500000    20.8119
bond_coeff     604   0.500000    20.3071
bond_coeff     605   0.500000    28.1291
bond_coeff     606   0.500000    27.2172
bond_coeff     607   0.500000    27.5471
bond_coeff     608   0.500000    29.1709
bond_coeff     609   0.500000    29.5535
bond_coeff     610   0.500000    27.4120
bond_coeff     611   0.500000    14.5507
bond_coeff     612   0.500000    29.2708
bond_coeff     613   0.500000    29.3856
bond_coeff     614   0.500000    28.8066
bond_coeff     615   0.500000    25.8027
bond_coeff     616   0.500000    18.2891
bond_coeff     617   0.500000    21.8465
bond_coeff     618   0.500000    18.5779
bond_coeff     619   0.500000    22.7717
bond_coeff     620   0.500000    19.5182
bond_coeff     621   0.500000    21.4816
bond_coeff     622   0.500000    13.6330
bond_coeff     623   0.500000    17.5410
bond_coeff     624   0.500000    20.5396
bond_coeff     625   0.500000     8.9320
bond_coeff     626   0.500000    20.7829
bond_coeff     627   0.500000    27.6821
bond_coeff     628   0.500000    29.1174
bond_coeff     629   0.500000    25.3068
bond_coeff     630   0.500000    25.0447
bond_coeff     631   0.500000    22.7993
bond_coeff     632   0.500000    21.3630
bond_coeff     633   0.500000    13.8285
bond_coeff     634   0.500000    14.8614
bond_coeff     635   0.500000    21.4328
bond_coeff     636   0.500000    19.3818
bond_coeff     637   0.500000    17.4369
bond_coeff     638   0.500000    23.7744
bond_coeff     639   0.500000    25.3425
bond_coeff     640   0.500000    21.7322
bond_coeff     641   0.500000    23.5889
bond_coeff     642   0.500000    27.0595
bond_coeff     643   0.500000    27.5669
bond_coeff     644   0.500000    28.2372
bond_coeff     645   0.500000    27.0755
bond_coeff     646   0.500000    14.5908
bond_coeff     647   0.500000    27.8916
bond_coeff     648   0.500000    28.6618
bond_coeff     649   0.500000    28.5758
bond_coeff     650   0.500000    27.3112
bond_coeff     651   0.500000    28.8310
bond_coeff     652   0.500000    25.6115
bond_coeff     653   0.500000    19.6222
bond_coeff     654   0.500000    23.5525
bond_coeff     655   0.500000    21.5752
bond_coeff     656   0.500000    24.7996
bond_coeff     657   0.500000    17.7385
bond_coeff     658   0.500000    25.8471
bond_coeff     659   0.500000    16.4941
bond_coeff     660   0.500000    11.9957
bond_coeff     661   0.500000    15.7596
bond_coeff     662   0.500000    12.1896
bond_coeff     663   0.500000    21.7886
bond_coeff     664   0.500000    24.2534
bond_coeff     665   0.500000    29.0563
bond_coeff     666   0.500000    23.9763
bond_coeff     667   0.500000    19.6668
bond_coeff     668   0.500000    25.3903
bond_coeff     669   0.500000    26.7792
bond_coeff     670   0.500000    18.6314
bond_coeff     671   0.500000    16.8964
bond_coeff     672   0.500000    22.8095
bond_coeff     673   0.500000     8.2662
bond_coeff     674   0.500000    11.1478
bond_coeff     675   0.500000    20.0090
bond_coeff     676   0.500000    16.2373
bond_coeff     677   0.500000    12.3943
bond_coeff     678   0.500000    17.0661
bond_coeff     679   0.500000    19.2401
bond_coeff     680   0.500000    16.8856
bond_coeff     681   0.500000    19.5442
bond_coeff     682   0.500000    21.7960
bond_coeff     683   0.500000    23.5062
bond_coeff     684   0.500000    24.1777
bond_coeff     685   0.500000    28.5187
bond_coeff     686   0.500000    26.9311
bond_coeff     687   0.500000    23.8788
bond_coeff     688   0.500000    29.2281
bond_coeff     689   0.500000    29.4071
bond_coeff     690   0.500000    26.4537
bond_coeff     691   0.500000    25.4470
bond_coeff     692   0.500000    25.6940
bond_coeff     693   0.500000    29.5991
bond_coeff     694   0.500000    27.9322
bond_coeff     695   0.500000    24.5044
bond_coeff     696   0.500000    29.5971
bond_coeff     697   0.500000    18.0978
bond_coeff     698   0.500000    25.8877
bond_coeff     699   0.500000    27.6278
bond_coeff     700   0.500000    16.5439
bond_coeff     701   0.500000    25.4103
bond_coeff     702   0.500000    14.8893
bond_coeff     703   0.500000    18.7258
bond_coeff     704   0.500000    28.2462
bond_coeff     705   0.500000    28.8531
bond_coeff     706   0.500000    28.8424
bond_coeff     707   0.500000    27.6788
bond_coeff     708   0.500000    24.7516
bond_coeff     709   0.500000    26.4273
bond_coeff     710   0.500000    28.5733
bond_coeff     711   0.500000    26.8222
bond_coeff     712   0.500000    26.1654
bond_coeff     713   0.500000    29.4734
bond_coeff     714   0.500000    24.0070
bond_coeff     715   0.500000    21.6671
bond_coeff     716   0.500000    16.6029
bond_coeff     717   0.500000    22.1669
bond_coeff     718   0.500000    14.3762
bond_coeff     719   0.500000    21.5777
bond_coeff     720   0.500000    26.2169
bond_coeff     721   0.500000    11.3219
bond_coeff     722   0.500000    12.4689
bond_coeff     723   0.500000    16.2746
bond_coeff     724   0.500000    22.7738
bond_coeff     725   0.500000    20.9855
bond_coeff     726   0.500000    20.4358
bond_coeff     727   0.500000    27.5173
bond_coeff     728   0.500000    24.4025
bond_coeff     729   0.500000    16.9996
bond_coeff     730   0.500000    10.3304
bond_coeff     731   0.500000    11.4966
bond_coeff     732   0.500000    22.5858
bond_coeff     733   0.500000    29.0970
bond_coeff     734   0.500000    26.4769
bond_coeff     735   0.500000    28.3342
bond_coeff     736   0.500000    25.8270
bond_coeff     737   0.500000    18.6797
bond_coeff     738   0.500000    24.9256
bond_coeff     739   0.500000     9.4122
bond_coeff     740   0.500000    16.3528
bond_coeff     741   0.500000    15.7702
bond_coeff     742   0.500000    13.2403
bond_coeff     743   0.500000    10.4406
bond_coeff     744   0.500000     8.3783
bond_coeff     745   0.500000    15.1368
bond_coeff     746   0.500000    21.4540
bond_coeff     747   0.500000    27.1537
bond_coeff     748   0.500000    28.6678
bond_coeff     749   0.500000    25.4864
bond_coeff     750   0.500000    23.0229
bond_coeff     751   0.500000    25.0559
bond_coeff     752   0.500000    29.7431
bond_coeff     753   0.500000    27.5911
bond_coeff     754   0.500000    25.8382
bond_coeff     755   0.500000    21.7292
bond_coeff     756   0.500000    18.7866
bond_coeff     757   0.500000    23.7898
bond_coeff     758   0.500000    27.3508
bond_coeff     759   0.500000    27.2698
bond_coeff     760   0.500000    27.6466
bond_coeff     761   0.500000    26.5007
bond_coeff     762   0.500000    24.8892
bond_coeff     763   0.500000    24.9477
bond_coeff     764   0.500000    16.9811
bond_coeff     765   0.500000    22.4384
bond_coeff     766   0.500000    28.1958
bond_coeff     767   0.500000    11.9118
bond_coeff     768   0.500000    28.8942
bond_coeff     769   0.500000    10.0142
bond_coeff     770   0.500000    19.9251
bond_coeff     771   0.500000     9.8591
bond_coeff     772   0.500000    17.8879
bond_coeff     773   0.500000    15.5587
bond_coeff     774   0.500000    13.7164
bond_coeff     775   0.500000    16.3728
bond_coeff     776   0.500000    28.1851
bond_coeff     777   0.500000    21.7562
bond_coeff     778   0.500000    24.3923
bond_coeff     779   0.500000    29.9474
bond_coeff     780   0.500000    28.8662
bond_coeff     781   0.500000    25.5420
bond_coeff     782   0.500000    23.6434
bond_coeff     783   0.500000    23.9896
bond_coeff     784   0.500000    28.5222
bond_coeff     785   0.500000    28.0488
bond_coeff     786   0.500000    24.6786
bond_coeff     787   0.500000    28.1882
bond_coeff     788   0.500000    27.2616
bond_coeff     789   0.500000    28.6638
bond_coeff     790   0.500000    20.4766
bond_coeff     791   0.500000    28.2092
bond_coeff     792   0.500000    17.0638
bond_coeff     793   0.500000    18.8761
bond_coeff     794   0.500000     8.1409
bond_coeff     795   0.500000    21.5337
bond_coeff     796   0.500000    21.3726
bond_coeff     797   0.500000    15.6072
bond_coeff     798   0.500000    10.1044
bond_coeff     799   0.500000    24.0493
bond_coeff     800   0.500000    28.6161
bond_coeff     801   0.500000    15.5170
bond_coeff     802   0.500000    23.3280
bond_coeff     803   0.500000    29.8855
bond_coeff     804   0.500000    26.9089
bond_coeff     805   0.500000    23.5738
bond_coeff     806   0.500000    24.1936
bond_coeff     807   0.500000    19.8076
bond_coeff     808   0.500000    16.3102
bond_coeff     809   0.500000    27.5309
bond_coeff     810   0.500000    21.7793
bond_coeff     811   0.500000    27.5761
bond_coeff     812   0.500000    28.6238
bond_coeff     813   0.500000    28.2745
bond_coeff     814   0.500000    21.3970
bond_coeff     815   0.500000    24.9458
bond_coeff     816   0.500000    25.2079
bond_coeff     817   0.500000    22.4733
bond_coeff     818   0.500000    27.5769
bond_coeff     819   0.500000    23.4269
bond_coeff     820   0.500000    26.0967
bond_coeff     821   0.500000    29.1288
bond_coeff     822   0.500000    17.9274
bond_coeff     823   0.500000    27.4353
bond_coeff     824   0.500000    17.3732
bond_coeff     825   0.500000    13.5056
bond_coeff     826   0.500000     9.2747
bond_coeff     827   0.500000    13.5180
bond_coeff     828   0.500000    15.1373
bond_coeff     829   0.500000    18.2616
bond_coeff     830   0.500000    13.1635
bond_coeff     831   0.500000    23.9254
bond_coeff     832   0.500000    15.9457
bond_coeff     833   0.500000    18.5533
bond_coeff     834   0.500000    12.9673
bond_coeff     835   0.500000    17.0464
bond_coeff     836   0.500000    20.7396
bond_coeff     837   0.500000    20.5020
bond_coeff     838   0.500000    21.4182
bond_coeff     839   0.500000    23.6653
bond_coeff     840   0.500000    20.1217
bond_coeff     841   0.500000    14.3011
bond_coeff     842   0.500000    16.5730
bond_coeff     843   0.500000    24.3378
bond_coeff     844   0.500000    27.1487
bond_coeff     845   0.500000    18.0509
bond_coeff     846   0.500000    18.3117
bond_coeff     847   0.500000    24.8265
bond_coeff     848   0.500000    23.3185
bond_coeff     849   0.500000    27.4611
bond_coeff     850   0.500000    27.6407
bond_coeff     851   0.500000    29.9543
bond_coeff     852   0.500000    29.0849
bond_coeff     853   0.500000    23.7528
bond_coeff     854   0.500000    20.9369
bond_coeff     855   0.500000    25.1493
bond_coeff     856   0.500000    27.1654
bond_coeff     857   0.500000    22.3226
bond_coeff     858   0.500000    23.9891
bond_coeff     859   0.500000    25.8537
bond_coeff     860   0.500000    26.4380
bond_coeff     861   0.500000    29.9544
bond_coeff     862   0.500000    22.3981
bond_coeff     863   0.500000    17.4324
bond_coeff     864   0.500000    26.7077
bond_coeff     865   0.500000    21.8373
bond_coeff     866   0.500000    28.3603
bond_coeff     867   0.500000    22.6411
bond_coeff     868   0.500000    12.2900
bond_coeff     869   0.500000     8.7300
bond_coeff     870   0.500000    14.3367
bond_coeff     871   0.500000    16.6975
bond_coeff     872   0.500000    19.9699
bond_coeff     873   0.500000    25.1005
bond_coeff     874   0.500000    28.9619
bond_coeff     875   0.500000    26.9717
bond_coeff     876   0.500000    20.1010
bond_coeff     877   0.500000    11.9093
bond_coeff     878   0.500000    22.2478
bond_coeff     879   0.500000    29.3852
bond_coeff     880   0.500000    28.1175
bond_coeff     881   0.500000    25.7727
bond_coeff     882   0.500000    27.4222
bond_coeff     883   0.500000    15.5677
bond_coeff     884   0.500000    15.2207
bond_coeff     885   0.500000     7.8581
bond_coeff     886   0.500000     8.2526
bond_coeff     887   0.500000    18.6963
bond_coeff     888   0.500000    28.5179
bond_coeff     889   0.500000    21.7747
bond_coeff     890   0.500000    12.5433
bond_coeff     891   0.500000    15.8749
bond_coeff     892   0.500000    24.1342
bond_coeff     893   0.500000    28.5054
bond_coeff     894   0.500000    25.2723
bond_coeff     895   0.500000    24.2466
bond_coeff     896   0.500000    24.8353
bond_coeff     897   0.500000    21.9012
bond_coeff     898   0.500000    19.0289
bond_coeff     899   0.500000    15.9745
bond_coeff     900   0.500000    19.7098
bond_coeff     901   0.500000    20.3406
bond_coeff     902   0.500000    16.0878
bond_coeff     903   0.500000    23.7171
bond_coeff     904   0.500000    22.9214
bond_coeff     905   0.500000    24.2564
bond_coeff     906   0.500000    27.8430
bond_coeff     907   0.500000    25.7894
bond_coeff     908   0.500000    25.6644
bond_coeff     909   0.500000    26.8401
bond_coeff     910   0.500000    29.2130
bond_coeff     911   0.500000    23.6149
bond_coeff     912   0.500000    28.6483
bond_coeff     913   0.500000    27.1429
bond_coeff     914   0.500000    26.9750
bond_coeff     915   0.500000    25.6211
bond_coeff     916   0.500000    26.9499
bond_coeff     917   0.500000    27.8305
bond_coeff     918   0.500000    27.6823
bond_coeff     919   0.500000    29.7798
bond_coeff     920   0.500000    17.8485
bond_coeff     921   0.500000    22.1607
bond_coeff     922   0.500000    26.7304
bond_coeff     923   0.500000    29.9788
bond_coeff     924   0.500000    16.3364
bond_coeff     925   0.500000    14.9150
bond_coeff     926   0.500000    22.7952
bond_coeff     927   0.500000    20.9213
bond_coeff     928   0.500000    29.8800
bond_coeff     929   0.500000    21.0519
bond_coeff     930   0.500000    24.5458
bond_coeff     931   0.500000    16.7759
bond_coeff     932   0.500000    15.9326
bond_coeff     933   0.500000    21.7423
bond_coeff     934   0.500000    21.7783
bond_coeff     935   0.500000    20.6120
bond_coeff     936   0.500000    20.2360
bond_coeff     937   0.500000    15.9105
bond_coeff     938   0.500000    10.8956
bond_coeff     939   0.500000    18.9452
bond_coeff     940   0.500000    29.3805
bond_coeff     941   0.500000    26.0802
bond_coeff     942   0.500000    26.9260
bond_coeff     943   0.500000    29.9835
bond_coeff     944   0.500000    27.9429
bond_coeff     945   0.500000    23.6610
bond_coeff     946   0.500000    29.8133
bond_coeff     947   0.500000    24.9283
bond_coeff     948   0.500000    24.2707
bond_coeff     949   0.500000    16.3432
bond_coeff     950   0.500000    13.3390
bond_coeff     951   0.500000    18.3072
bond_coeff     952   0.500000    21.3252
bond_coeff     953   0.500000    24.8325
bond_coeff     954   0.500000    22.3766
bond_coeff     955   0.500000    12.5382
bond_coeff     956   0.500000    22.8406
bond_coeff     957   0.500000    26.7635
bond_coeff     958   0.500000    27.8848
bond_coeff     959   0.500000    27.7484
bond_coeff     960   0.500000    13.2304
bond_coeff     961   0.500000    22.9152
bond_coeff     962   0.500000    23.9750
bond_coeff     963   0.500000    23.4577
bond_coeff     964   0.500000    25.4125
bond_coeff     965   0.500000    18.2020
bond_coeff     966   0.500000    17.3060
bond_coeff     967   0.500000    23.6843
bond_coeff     968   0.500000    22.7902
bond_coeff     969   0.500000    20.3604
bond_coeff     970   0.500000    18.4329
bond_coeff     971   0.500000    14.0902
bond_coeff     972   0.500000    10.9847
bond_coeff     973   0.500000    19.0943
bond_coeff     974   0.500000    29.7175
bond_coeff     975   0.500000    28.3878
bond_coeff     976   0.500000    28.5032
bond_coeff     977   0.500000    28.6344
bond_coeff     978   0.500000    28.0431
bond_coeff     979   0.500000    20.0075
bond_coeff     980   0.500000    18.4172
bond_coeff     981   0.500000    22.7292
bond_coeff     982   0.500000    26.3653
bond_coeff     983   0.500000    27.4429
bond_coeff     984   0.500000    15.5083
bond_coeff     985   0.500000    27.5249
bond_coeff     986   0.500000    12.1731
bond_coeff     987   0.500000    18.5574
bond_coeff     988   0.500000    25.8456
bond_coeff     989   0.500000    18.7730
bond_coeff     990   0.500000    14.4635
bond_coeff     991   0.500000    12.0836
bond_coeff     992   0.500000    19.1153
bond_coeff     993   0.500000    23.7334
bond_coeff     994   0.500000    19.6968
bond_coeff     995   0.500000    17.5601
bond_coeff     996   0.500000    17.4906
bond_coeff     997   0.500000    15.0873
bond_coeff     998   0.500000    13.8301
bond_coeff     999   0.500000    10.5159
bond_coeff    1000   0.500000    17.7298
bond_coeff    1001   0.500000    23.4126
bond_coeff    1002   0.500000    20.7390
bond_coeff    1003   0.500000    24.7647
bond_coeff    1004   0.500000    27.5545
bond_coeff    1005   0.500000    24.8326
bond_coeff    1006   0.500000    25.9521
bond_coeff    1007   0.500000    24.1118
bond_coeff    1008   0.500000    24.9100
bond_coeff    1009   0.500000    27.8292
bond_coeff    1010   0.500000    29.4341
bond_coeff    1011   0.500000    23.3828
bond_coeff    1012   0.500000    22.5317
bond_coeff    1013   0.500000    25.4996
bond_coeff    1014   0.500000    21.0700
bond_coeff    1015   0.500000    17.6640
bond_coeff    1016   0.500000    26.2413
bond_coeff    1017   0.500000    21.7900
bond_coeff    1018   0.500000    16.9463
bond_coeff    1019   0.500000    27.9008
bond_coeff    1020   0.500000    26.7226
bond_coeff    1021   0.500000    26.5752
bond_coeff    1022   0.500000    28.4457
bond_coeff    1023   0.500000    26.4919
bond_coeff    1024   0.500000    24.0900
bond_coeff    1025   0.500000    16.4380
bond_coeff    1026   0.500000    14.1394
bond_coeff    1027   0.500000    12.2455
bond_coeff    1028   0.500000    11.4543
bond_coeff    1029   0.500000    21.1168
bond_coeff    1030   0.500000    17.1321
bond_coeff    1031   0.500000    19.1304
bond_coeff    1032   0.500000    23.0173
bond_coeff    1033   0.500000    20.1352
bond_coeff    1034   0.500000    18.7193
bond_coeff    1035   0.500000    19.2482
bond_coeff    1036   0.500000    23.0826
bond_coeff    1037   0.500000    29.8748
bond_coeff    1038   0.500000    29.4420
bond_coeff    1039   0.500000    19.8356
bond_coeff    1040   0.500000    27.0149
bond_coeff    1041   0.500000    24.4162
bond_coeff    1042   0.500000    28.4879
bond_coeff    1043   0.500000    29.5267
bond_coeff    1044   0.500000    26.6483
bond_coeff    1045   0.500000    27.5131
bond_coeff    1046   0.500000    29.6872
bond_coeff    1047   0.500000    22.5440
bond_coeff    1048   0.500000    26.2267
bond_coeff    1049   0.500000    29.7103
bond_coeff    1050   0.500000    22.7416
bond_coeff    1051   0.500000    11.9729
bond_coeff    1052   0.500000     7.5545
bond_coeff    1053   0.500000    13.7120
bond_coeff    1054   0.500000     9.2011
bond_coeff    1055   0.500000    18.3414
bond_coeff    1056   0.500000    18.0839
bond_coeff    1057   0.500000    16.3669
bond_coeff    1058   0.500000    19.7564
bond_coeff    1059   0.500000    24.9096
bond_coeff    1060   0.500000    23.3682
bond_coeff    1061   0.500000    19.0291
bond_coeff    1062   0.500000    12.9678
bond_coeff    1063   0.500000    15.8555
bond_coeff    1064   0.500000    21.0104
bond_coeff    1065   0.500000    13.9564
bond_coeff    1066   0.500000    18.9207
bond_coeff    1067   0.500000    11.2390
bond_coeff    1068   0.500000    14.9799
bond_coeff    1069   0.500000    16.1985
bond_coeff    1070   0.500000    19.7517
bond_coeff    1071   0.500000    20.9400
bond_coeff    1072   0.500000    18.8844
bond_coeff    1073   0.500000    27.2175
bond_coeff    1074   0.500000    29.3436
bond_coeff    1075   0.500000    20.9196
bond_coeff    1076   0.500000    14.5236
bond_coeff    1077   0.500000    23.1911
bond_coeff    1078   0.500000    19.2222
bond_coeff    1079   0.500000    18.9172
bond_coeff    1080   0.500000    23.2406
bond_coeff    1081   0.500000    27.7514
bond_coeff    1082   0.500000    23.8991
bond_coeff    1083   0.500000    21.9740
bond_coeff    1084   0.500000    24.1032
bond_coeff    1085   0.500000    29.2353
bond_coeff    1086   0.500000    26.5231
bond_coeff    1087   0.500000    24.9646
bond_coeff    1088   0.500000    24.8219
bond_coeff    1089   0.500000    28.6453
bond_coeff    1090   0.500000    23.3080
bond_coeff    1091   0.500000    22.5371
bond_coeff    1092   0.500000    15.1116
bond_coeff    1093   0.500000    15.0741
bond_coeff    1094   0.500000    18.7882
bond_coeff    1095   0.500000    23.0608
bond_coeff    1096   0.500000    24.7136
bond_coeff    1097   0.500000    27.8240
bond_coeff    1098   0.500000    29.9184
bond_coeff    1099   0.500000    26.0211
bond_coeff    1100   0.500000    24.1369
bond_coeff    1101   0.500000    24.4580
bond_coeff    1102   0.500000    20.9401
bond_coeff    1103   0.500000    25.7955
bond_coeff    1104   0.500000     8.8934
bond_coeff    1105   0.500000    21.1180
bond_coeff    1106   0.500000    14.5068
bond_coeff    1107   0.500000    20.3566
bond_coeff    1108   0.500000    16.5049
bond_coeff    1109   0.500000    14.3786
bond_coeff    1110   0.500000    19.2207
bond_coeff    1111   0.500000    25.7410
bond_coeff    1112   0.500000    26.1801
bond_coeff    1113   0.500000    23.8456
bond_coeff    1114   0.500000    16.1994
bond_coeff    1115   0.500000    17.0488
bond_coeff    1116   0.500000    26.5641
bond_coeff    1117   0.500000    23.5045
bond_coeff    1118   0.500000    12.6905
bond_coeff    1119   0.500000    26.3648
bond_coeff    1120   0.500000    12.9972
bond_coeff    1121   0.500000     9.4984
bond_coeff    1122   0.500000    13.3831
bond_coeff    1123   0.500000    19.0740
bond_coeff    1124   0.500000    21.9929
bond_coeff    1125   0.500000    21.6885
bond_coeff    1126   0.500000    29.8103
bond_coeff    1127   0.500000    20.8205
bond_coeff    1128   0.500000    23.8880
bond_coeff    1129   0.500000    18.1481
bond_coeff    1130   0.500000    26.4383
bond_coeff    1131   0.500000    27.9535
bond_coeff    1132   0.500000    24.1437
bond_coeff    1133   0.500000    27.5761
bond_coeff    1134   0.500000    23.5236
bond_coeff    1135   0.500000    19.7138
bond_coeff    1136   0.500000    24.4887
bond_coeff    1137   0.500000    29.6014
bond_coeff    1138   0.500000    28.8947
bond_coeff    1139   0.500000    29.4512
bond_coeff    1140   0.500000    20.7183
bond_coeff    1141   0.500000    16.2219
bond_coeff    1142   0.500000    23.1687
bond_coeff    1143   0.500000    28.2210
bond_coeff    1144   0.500000    18.0942
bond_coeff    1145   0.500000    12.7909
bond_coeff    1146   0.500000    11.2723
bond_coeff    1147   0.500000     9.1145
bond_coeff    1148   0.500000    13.3592
bond_coeff    1149   0.500000    19.3526
bond_coeff    1150   0.500000    18.6948
bond_coeff    1151   0.500000    15.3688
bond_coeff    1152   0.500000    10.0533
bond_coeff    1153   0.500000    16.8582
bond_coeff    1154   0.500000    26.1067
bond_coeff    1155   0.500000    20.9324
bond_coeff    1156   0.500000    12.7707
bond_coeff    1157   0.500000    25.9441
bond_coeff    1158   0.500000    15.6250
bond_coeff    1159   0.500000    15.0634
bond_coeff    1160   0.500000    17.0182
bond_coeff    1161   0.500000    21.7421
bond_coeff    1162   0.500000    24.7168
bond_coeff    1163   0.500000    24.6132
bond_coeff    1164   0.500000    28.4354
bond_coeff    1165   0.500000    20.4290
bond_coeff    1166   0.500000    25.5110
bond_coeff    1167   0.500000    23.1462
bond_coeff    1168   0.500000    29.2973
bond_coeff    1169   0.500000    26.3574
bond_coeff    1170   0.500000    29.9798
bond_coeff    1171   0.500000    28.8606
bond_coeff    1172   0.500000    28.5803
bond_coeff    1173   0.500000    27.4154
bond_coeff    1174   0.500000    16.2342
bond_coeff    1175   0.500000    13.6619
bond_coeff    1176   0.500000    19.4554
bond_coeff    1177   0.500000    25.0908
bond_coeff    1178   0.500000    26.4398
bond_coeff    1179   0.500000    26.8999
bond_coeff    1180   0.500000    27.8217
bond_coeff    1181   0.500000    28.9921
bond_coeff    1182   0.500000    19.1292
bond_coeff    1183   0.500000    14.4566
bond_coeff    1184   0.500000    19.8275
bond_coeff    1185   0.500000    26.1455
bond_coeff    1186   0.500000    27.4145
bond_coeff    1187   0.500000    14.6389
bond_coeff    1188   0.500000    26.5607
bond_coeff    1189   0.500000    28.2534
bond_coeff    1190   0.500000    24.0682
bond_coeff    1191   0.500000    24.9484
bond_coeff    1192   0.500000    28.1050
bond_coeff    1193   0.500000    26.6857
bond_coeff    1194   0.500000    24.1234
bond_coeff    1195   0.500000    14.4794
bond_coeff    1196   0.500000     9.5927
bond_coeff    1197   0.500000     9.6971
bond_coeff    1198   0.500000     9.1643
bond_coeff    1199   0.500000    16.3893
bond_coeff    1200   0.500000    14.3097
bond_coeff    1201   0.500000    13.3346
bond_coeff    1202   0.500000    17.2709
bond_coeff    1203   0.500000    14.5569
bond_coeff    1204   0.500000    13.6848
bond_coeff    1205   0.500000    14.3520
bond_coeff    1206   0.500000    18.1663
bond_coeff    1207   0.500000    26.3179
bond_coeff    1208   0.500000    26.3742
bond_coeff    1209   0.500000    28.8943
bond_coeff    1210   0.500000    29.1037
bond_coeff    1211   0.500000    28.0889
bond_coeff    1212   0.500000    18.4403
bond_coeff    1213   0.500000    23.3682
bond_coeff    1214   0.500000    23.0775
bond_coeff    1215   0.500000    24.4130
bond_coeff    1216   0.500000    24.1126
bond_coeff    1217   0.500000    26.5798
bond_coeff    1218   0.500000    29.9042
bond_coeff    1219   0.500000    26.1544
bond_coeff    1220   0.500000    29.0499
bond_coeff    1221   0.500000    29.5568
bond_coeff    1222   0.500000    24.5025
bond_coeff    1223   0.500000    25.2600
bond_coeff    1224   0.500000    27.5427
bond_coeff    1225   0.500000    25.4776
bond_coeff    1226   0.500000    12.0945
bond_coeff    1227   0.500000    13.9100
bond_coeff    1228   0.500000    10.1908
bond_coeff    1229   0.500000    11.5956
bond_coeff    1230   0.500000    16.0164
bond_coeff    1231   0.500000    14.6396
bond_coeff    1232   0.500000    11.4947
bond_coeff    1233   0.500000    14.8393
bond_coeff    1234   0.500000    23.8691
bond_coeff    1235   0.500000    19.2283
bond_coeff    1236   0.500000    15.9095
bond_coeff    1237   0.500000    25.3648
bond_coeff    1238   0.500000    17.5432
bond_coeff    1239   0.500000    17.6617
bond_coeff    1240   0.500000    17.8986
bond_coeff    1241   0.500000    21.3311
bond_coeff    1242   0.500000    24.5714
bond_coeff    1243   0.500000    26.2330
bond_coeff    1244   0.500000    27.7566
bond_coeff    1245   0.500000    23.5126
bond_coeff    1246   0.500000    28.3427
bond_coeff    1247   0.500000    27.0749
bond_coeff    1248   0.500000    29.6697
bond_coeff    1249   0.500000    28.5267
bond_coeff    1250   0.500000    24.6612
bond_coeff    1251   0.500000    16.4748
bond_coeff    1252   0.500000    16.4364
bond_coeff    1253   0.500000    22.1685
bond_coeff    1254   0.500000    27.5208
bond_coeff    1255   0.500000    28.4149
bond_coeff    1256   0.500000    24.1302
bond_coeff    1257   0.500000    24.0505
bond_coeff    1258   0.500000    19.1892
bond_coeff    1259   0.500000    23.3990
bond_coeff    1260   0.500000     7.9787
bond_coeff    1261   0.500000     8.1343
bond_coeff    1262   0.500000    11.1970
bond_coeff    1263   0.500000     9.6841
bond_coeff    1264   0.500000    13.8992
bond_coeff    1265   0.500000    26.1456
bond_coeff    1266   0.500000    24.4414
bond_coeff    1267   0.500000    28.1165
bond_coeff    1268   0.500000    26.9858
bond_coeff    1269   0.500000    28.3404
bond_coeff    1270   0.500000    28.8795
bond_coeff    1271   0.500000    15.8937
bond_coeff    1272   0.500000    13.6142
bond_coeff    1273   0.500000    20.1949
bond_coeff    1274   0.500000    26.3289
bond_coeff    1275   0.500000    29.4248
bond_coeff    1276   0.500000    24.8537
bond_coeff    1277   0.500000    27.0619
bond_coeff    1278   0.500000    27.1967
bond_coeff    1279   0.500000    17.3552
bond_coeff    1280   0.500000    13.4601
bond_coeff    1281   0.500000    14.2021
bond_coeff    1282   0.500000    21.3359
bond_coeff    1283   0.500000    22.4600
bond_coeff    1284   0.500000    29.3931
bond_coeff    1285   0.500000    27.8409
bond_coeff    1286   0.500000     9.9760
bond_coeff    1287   0.500000    15.1807
bond_coeff    1288   0.500000    15.2227
bond_coeff    1289   0.500000    13.1905
bond_coeff    1290   0.500000    15.9624
bond_coeff    1291   0.500000    26.3717
bond_coeff    1292   0.500000    23.0019
bond_coeff    1293   0.500000    26.6841
bond_coeff    1294   0.500000    24.5191
bond_coeff    1295   0.500000    26.8223
bond_coeff    1296   0.500000    28.7504
bond_coeff    1297   0.500000    17.9647
bond_coeff    1298   0.500000    13.1101
bond_coeff    1299   0.500000    19.8192
bond_coeff    1300   0.500000    26.2277
bond_coeff    1301   0.500000    27.7177
bond_coeff    1302   0.500000    25.7981
bond_coeff    1303   0.500000    27.3562
bond_coeff    1304   0.500000    22.2722
bond_coeff    1305   0.500000    11.8741
bond_coeff    1306   0.500000     9.8765
bond_coeff    1307   0.500000    16.9921
bond_coeff    1308   0.500000    19.7265
bond_coeff    1309   0.500000    29.0147
bond_coeff    1310   0.500000    25.0243
bond_coeff    1311   0.500000    26.9119
bond_coeff    1312   0.500000    12.0714
bond_coeff    1313   0.500000    12.9001
bond_coeff    1314   0.500000    12.1969
bond_coeff    1315   0.500000    10.7433
bond_coeff    1316   0.500000    21.0487
bond_coeff    1317   0.500000    28.8146
bond_coeff    1318   0.500000    21.8651
bond_coeff    1319   0.500000    23.7022
bond_coeff    1320   0.500000    20.5951
bond_coeff    1321   0.500000    22.1936
bond_coeff    1322   0.500000    26.8898
bond_coeff    1323   0.500000    29.2278
bond_coeff    1324   0.500000    20.3458
bond_coeff    1325   0.500000    16.9432
bond_coeff    1326   0.500000    23.7804
bond_coeff    1327   0.500000    27.9935
bond_coeff    1328   0.500000    17.4832
bond_coeff    1329   0.500000    11.5555
bond_coeff    1330   0.500000    15.9139
bond_coeff    1331   0.500000    22.9121
bond_coeff    1332   0.500000    26.0402
bond_coeff    1333   0.500000     8.2583
bond_coeff    1334   0.500000     9.9786
bond_coeff    1335   0.500000    10.5057
bond_coeff    1336   0.500000    22.1035
bond_coeff    1337   0.500000    25.9076
bond_coeff    1338   0.500000    27.1514
bond_coeff    1339   0.500000    24.0088
bond_coeff    1340   0.500000    24.7266
bond_coeff    1341   0.500000    28.7128
bond_coeff    1342   0.500000    22.5556
bond_coeff    1343   0.500000    20.3704
bond_coeff    1344   0.500000    27.1839
bond_coeff    1345   0.500000    21.6217
bond_coeff    1346   0.500000    15.9923
bond_coeff    1347   0.500000    18.8273
bond_coeff    1348   0.500000    25.9359
bond_coeff    1349   0.500000    29.0056
bond_coeff    1350   0.500000    10.0172
bond_coeff    1351   0.500000    14.1890
bond_coeff    1352   0.500000    25.9917
bond_coeff    1353   0.500000    29.7554
bond_coeff    1354   0.500000    29.8199
bond_coeff    1355   0.500000    25.6462
bond_coeff    1356   0.500000    24.6052
bond_coeff    1357   0.500000    26.4522
bond_coeff    1358   0.500000    21.4207
bond_coeff    1359   0.500000    22.5956
bond_coeff    1360   0.500000    29.4835
bond_coeff    1361   0.500000    13.6211
bond_coeff    1362   0.500000    26.1206
bond_coeff    1363   0.500000    22.4460
bond_coeff    1364   0.500000    22.3850
bond_coeff    1365   0.500000    28.5526
bond_coeff    1366   0.500000    27.9386
bond_coeff    1367   0.500000    26.5177
bond_coeff    1368   0.500000    22.0032
bond_coeff    1369   0.500000    22.6868
bond_coeff    1370   0.500000    29.6651
bond_coeff    1371   0.500000    12.4945
bond_coeff    1372   0.500000    25.1945
bond_coeff    1373   0.500000    28.2846
bond_coeff    1374   0.500000    25.7751
bond_coeff    1375   0.500000    28.8823
bond_coeff    1376   0.500000    28.6951
bond_coeff    1377   0.500000    29.0260
bond_coeff    1378   0.500000    25.5076
bond_coeff    1379   0.500000    16.2427
bond_coeff    1380   0.500000    16.9218
bond_coeff    1381   0.500000    22.7365
bond_coeff    1382   0.500000    28.2073
bond_coeff    1383   0.500000    26.3297
bond_coeff    1384   0.500000    22.7796
bond_coeff    1385   0.500000    29.9771
bond_coeff    1386   0.500000    23.9213
bond_coeff    1387   0.500000    20.0931
bond_coeff    1388   0.500000    20.7456
bond_coeff    1389   0.500000    27.7233
bond_coeff    1390   0.500000    27.8779
bond_coeff    1391   0.500000    12.8581
bond_coeff    1392   0.500000    23.4875
bond_coeff    1393   0.500000    21.0270
bond_coeff    1394   0.500000    19.2342
bond_coeff    1395   0.500000    27.0004
bond_coeff    1396   0.500000    19.0090
bond_coeff    1397   0.500000    17.6817
bond_coeff    1398   0.500000    17.0837
bond_coeff    1399   0.500000    20.0158
bond_coeff    1400   0.500000    24.1119
bond_coeff    1401   0.500000    27.8207
bond_coeff    1402   0.500000    27.4734
bond_coeff    1403   0.500000    29.4240
bond_coeff    1404   0.500000    27.8310
bond_coeff    1405   0.500000    20.8915
bond_coeff    1406   0.500000    20.8339
bond_coeff    1407   0.500000    26.7755
bond_coeff    1408   0.500000    26.8179
bond_coeff    1409   0.500000    26.9119
bond_coeff    1410   0.500000    21.4313
bond_coeff    1411   0.500000    25.8148
bond_coeff    1412   0.500000    13.8069
bond_coeff    1413   0.500000    17.2583
bond_coeff    1414   0.500000    18.3790
bond_coeff    1415   0.500000    20.4780
bond_coeff    1416   0.500000    12.7164
bond_coeff    1417   0.500000    11.1075
bond_coeff    1418   0.500000     7.5247
bond_coeff    1419   0.500000    12.2386
bond_coeff    1420   0.500000    19.7951
bond_coeff    1421   0.500000    28.4979
bond_coeff    1422   0.500000    29.4729
bond_coeff    1423   0.500000    26.0466
bond_coeff    1424   0.500000    27.3314
bond_coeff    1425   0.500000    28.0010
bond_coeff    1426   0.500000    23.9178
bond_coeff    1427   0.500000    29.4012
bond_coeff    1428   0.500000    29.4820
bond_coeff    1429   0.500000    29.5751
bond_coeff    1430   0.500000    29.8282
bond_coeff    1431   0.500000    11.3778
bond_coeff    1432   0.500000    20.7702
bond_coeff    1433   0.500000    11.0726
bond_coeff    1434   0.500000    15.2164
bond_coeff    1435   0.500000    19.8939
bond_coeff    1436   0.500000    16.4066
bond_coeff    1437   0.500000    12.5252
bond_coeff    1438   0.500000     9.5550
bond_coeff    1439   0.500000    15.0216
bond_coeff    1440   0.500000    21.1759
bond_coeff    1441   0.500000    19.9874
bond_coeff    1442   0.500000    22.0286
bond_coeff    1443   0.500000    23.6093
bond_coeff    1444   0.500000    24.1153
bond_coeff    1445   0.500000    17.0664
bond_coeff    1446   0.500000    26.4058
bond_coeff    1447   0.500000    22.2889
bond_coeff    1448   0.500000    24.3411
bond_coeff    1449   0.500000    23.6636
bond_coeff    1450   0.500000    24.5453
bond_coeff    1451   0.500000    27.6902
bond_coeff    1452   0.500000    27.7908
bond_coeff    1453   0.500000    13.6776
bond_coeff    1454   0.500000    13.2754
bond_coeff    1455   0.500000    20.7808
bond_coeff    1456   0.500000    19.3372
bond_coeff    1457   0.500000    18.7902
bond_coeff    1458   0.500000    16.5323
bond_coeff    1459   0.500000    14.2023
bond_coeff    1460   0.500000    20.8215
bond_coeff    1461   0.500000    20.6481
bond_coeff    1462   0.500000    22.5375
bond_coeff    1463   0.500000    21.4620
bond_coeff    1464   0.500000    19.5657
bond_coeff    1465   0.500000     9.4593
bond_coeff    1466   0.500000    17.1783
bond_coeff    1467   0.500000    13.9162
bond_coeff    1468   0.500000    17.4506
bond_coeff    1469   0.500000    20.5731
bond_coeff    1470   0.500000    19.9680
bond_coeff    1471   0.500000    21.3783
bond_coeff    1472   0.500000    27.9657
bond_coeff    1473   0.500000    28.9312
bond_coeff    1474   0.500000    17.5385
bond_coeff    1475   0.500000    26.0281
bond_coeff    1476   0.500000    23.8574
bond_coeff    1477   0.500000    24.1186
bond_coeff    1478   0.500000    26.7885
bond_coeff    1479   0.500000    27.5452
bond_coeff    1480   0.500000    24.3154
bond_coeff    1481   0.500000    27.5150
bond_coeff    1482   0.500000    21.8936
bond_coeff    1483   0.500000    23.1542
bond_coeff    1484   0.500000    28.0994
bond_coeff    1485   0.500000    28.0885
bond_coeff    1486   0.500000    20.3381
bond_coeff    1487   0.500000    23.7199
bond_coeff    1488   0.500000    26.8530
bond_coeff    1489   0.500000    28.3774
bond_coeff    1490   0.500000    23.2299
bond_coeff    1491   0.500000    16.0763
bond_coeff    1492   0.500000     8.3259
bond_coeff    1493   0.500000    14.4313
bond_coeff    1494   0.500000    16.3536
bond_coeff    1495   0.500000    19.6774
bond_coeff    1496   0.500000    19.2246
bond_coeff    1497   0.500000    13.8351
bond_coeff    1498   0.500000    21.4173
bond_coeff    1499   0.500000    24.1600
bond_coeff    1500   0.500000    28.0205
bond_coeff    1501   0.500000    27.0797
bond_coeff    1502   0.500000    26.4315
bond_coeff    1503   0.500000    18.2000
bond_coeff    1504   0.500000     9.4613
bond_coeff    1505   0.500000    19.8702
bond_coeff    1506   0.500000    12.8241
bond_coeff    1507   0.500000    12.4388
bond_coeff    1508   0.500000    16.6644
bond_coeff    1509   0.500000    22.1700
bond_coeff    1510   0.500000    21.7927
bond_coeff    1511   0.500000    18.7891
bond_coeff    1512   0.500000    20.1459
bond_coeff    1513   0.500000    27.0382
bond_coeff    1514   0.500000    20.6493
bond_coeff    1515   0.500000    18.2754
bond_coeff    1516   0.500000    18.1775
bond_coeff    1517   0.500000    26.5140
bond_coeff    1518   0.500000    28.6270
bond_coeff    1519   0.500000    23.3488
bond_coeff    1520   0.500000    25.1563
bond_coeff    1521   0.500000    18.9908
bond_coeff    1522   0.500000    18.4353
bond_coeff    1523   0.500000    20.3851
bond_coeff    1524   0.500000    23.4525
bond_coeff    1525   0.500000    23.5256
bond_coeff    1526   0.500000    25.2167
bond_coeff    1527   0.500000    29.3176
bond_coeff    1528   0.500000    27.9194
bond_coeff    1529   0.500000    28.0114
bond_coeff    1530   0.500000    26.8112
bond_coeff    1531   0.500000    24.1372
bond_coeff    1532   0.500000    29.4124
bond_coeff    1533   0.500000    14.0339
bond_coeff    1534   0.500000    22.1381
bond_coeff    1535   0.500000    20.7206
bond_coeff    1536   0.500000    19.2327
bond_coeff    1537   0.500000    14.8221
bond_coeff    1538   0.500000     9.8974
bond_coeff    1539   0.500000    14.3833
bond_coeff    1540   0.500000    13.5423
bond_coeff    1541   0.500000    15.3601
bond_coeff    1542   0.500000    14.8559
bond_coeff    1543   0.500000    14.4206
bond_coeff    1544   0.500000    17.9256
bond_coeff    1545   0.500000    11.7645
bond_coeff    1546   0.500000    14.8318
bond_coeff    1547   0.500000    18.1084
bond_coeff    1548   0.500000    15.4874
bond_coeff    1549   0.500000    16.8492
bond_coeff    1550   0.500000    25.0524
bond_coeff    1551   0.500000    27.3835
bond_coeff    1552   0.500000    18.1907
bond_coeff    1553   0.500000    27.3699
bond_coeff    1554   0.500000    23.8546
bond_coeff    1555   0.500000    24.5455
bond_coeff    1556   0.500000    24.7539
bond_coeff    1557   0.500000    24.9145
bond_coeff    1558   0.500000    21.1747
bond_coeff    1559   0.500000    26.1755
bond_coeff    1560   0.500000    24.3086
bond_coeff    1561   0.500000    26.5996
bond_coeff    1562   0.500000    25.7505
bond_coeff    1563   0.500000    29.5134
bond_coeff    1564   0.500000    29.3820
bond_coeff    1565   0.500000     8.6858
bond_coeff    1566   0.500000     9.2930
bond_coeff    1567   0.500000    11.7853
bond_coeff    1568   0.500000    11.2392
bond_coeff    1569   0.500000     9.5129
bond_coeff    1570   0.500000    18.4848
bond_coeff    1571   0.500000    20.8992
bond_coeff    1572   0.500000    25.2984
bond_coeff    1573   0.500000    26.0046
bond_coeff    1574   0.500000    26.8370
bond_coeff    1575   0.500000    19.1105
bond_coeff    1576   0.500000    16.3706
bond_coeff    1577   0.500000    22.3548
bond_coeff    1578   0.500000    15.9012
bond_coeff    1579   0.500000    11.5205
bond_coeff    1580   0.500000    17.3197
bond_coeff    1581   0.500000    24.2895
bond_coeff    1582   0.500000    26.4868
bond_coeff    1583   0.500000    26.5599
bond_coeff    1584   0.500000    26.7471
bond_coeff    1585   0.500000    25.7300
bond_coeff    1586   0.500000    20.5242
bond_coeff    1587   0.500000    21.3334
bond_coeff    1588   0.500000    25.9747
bond_coeff    1589   0.500000    25.4423
bond_coeff    1590   0.500000    28.3637
bond_coeff    1591   0.500000    28.0766
bond_coeff    1592   0.500000    10.1913
bond_coeff    1593   0.500000    13.4457
bond_coeff    1594   0.500000    16.6197
bond_coeff    1595   0.500000    24.9450
bond_coeff    1596   0.500000    27.6448
bond_coeff    1597   0.500000    27.6429
bond_coeff    1598   0.500000    23.3194
bond_coeff    1599   0.500000    23.5251
bond_coeff    1600   0.500000    16.2980
bond_coeff    1601   0.500000    24.4772
bond_coeff    1602   0.500000    24.9297
bond_coeff    1603   0.500000    27.8914
bond_coeff    1604   0.500000    29.5846
bond_coeff    1605   0.500000    27.4704
bond_coeff    1606   0.500000    25.3302
bond_coeff    1607   0.500000    10.2563
bond_coeff    1608   0.500000    16.4608
bond_coeff    1609   0.500000    24.9152
bond_coeff    1610   0.500000    26.8761
bond_coeff    1611   0.500000    26.7485
bond_coeff    1612   0.500000    25.3165
bond_coeff    1613   0.500000    25.0300
bond_coeff    1614   0.500000    18.6444
bond_coeff    1615   0.500000    25.7166
bond_coeff    1616   0.500000    27.8922
bond_coeff    1617   0.500000    29.8516
bond_coeff    1618   0.500000    28.5707
bond_coeff    1619   0.500000    16.1468
bond_coeff    1620   0.500000    23.8951
bond_coeff    1621   0.500000    24.9112
bond_coeff    1622   0.500000    28.9102
bond_coeff    1623   0.500000    25.8649
bond_coeff    1624   0.500000    27.9721
bond_coeff    1625   0.500000    26.5417
bond_coeff    1626   0.500000    20.9491
bond_coeff    1627   0.500000    26.5191
bond_coeff    1628   0.500000    11.5693
bond_coeff    1629   0.500000    18.3699
bond_coeff    1630   0.500000    18.9097
bond_coeff    1631   0.500000    22.7981
bond_coeff    1632   0.500000    25.5286
bond_coeff    1633   0.500000    27.7871
bond_coeff    1634   0.500000    21.7975
bond_coeff    1635   0.500000    26.0225
bond_coeff    1636   0.500000    26.3030
bond_coeff    1637   0.500000    23.0657
bond_coeff    1638   0.500000    18.4225
bond_coeff    1639   0.500000    22.2288
bond_coeff    1640   0.500000    28.4498
bond_coeff    1641   0.500000    27.9486
bond_coeff    1642   0.500000    28.2827
bond_coeff    1643   0.500000     9.1038
bond_coeff    1644   0.500000    11.4737
bond_coeff    1645   0.500000    16.1672
bond_coeff    1646   0.500000    17.4504
bond_coeff    1647   0.500000    19.7568
bond_coeff    1648   0.500000    15.2269
bond_coeff    1649   0.500000    16.9748
bond_coeff    1650   0.500000    18.0931
bond_coeff    1651   0.500000    12.0018
bond_coeff    1652   0.500000     9.6182
bond_coeff    1653   0.500000    10.6804
bond_coeff    1654   0.500000    17.5712
bond_coeff    1655   0.500000    28.8059
bond_coeff    1656   0.500000    24.3404
bond_coeff    1657   0.500000    27.3127
bond_coeff    1658   0.500000    25.1484
bond_coeff    1659   0.500000    22.4879
bond_coeff    1660   0.500000    17.9185
bond_coeff    1661   0.500000    16.9232
bond_coeff    1662   0.500000    28.4705
bond_coeff    1663   0.500000     9.9068
bond_coeff    1664   0.500000    12.0701
bond_coeff    1665   0.500000    16.7220
bond_coeff    1666   0.500000    17.5919
bond_coeff    1667   0.500000    21.1163
bond_coeff    1668   0.500000    18.8918
bond_coeff    1669   0.500000    13.5201
bond_coeff    1670   0.500000    13.5129
bond_coeff    1671   0.500000     8.8672
bond_coeff    1672   0.500000    14.1364
bond_coeff    1673   0.500000    25.8127
bond_coeff    1674   0.500000    26.0470
bond_coeff    1675   0.500000    26.2484
bond_coeff    1676   0.500000    21.6306
bond_coeff    1677   0.500000    17.9407
bond_coeff    1678   0.500000    15.5983
bond_coeff    1679   0.500000    27.3612
bond_coeff    1680   0.500000     8.8859
bond_coeff    1681   0.500000    14.2238
bond_coeff    1682   0.500000    16.4948
bond_coeff    1683   0.500000    23.8706
bond_coeff    1684   0.500000    18.1766
bond_coeff    1685   0.500000    16.5646
bond_coeff    1686   0.500000    17.9298
bond_coeff    1687   0.500000    12.5501
bond_coeff    1688   0.500000    14.8381
bond_coeff    1689   0.500000    25.3161
bond_coeff    1690   0.500000    25.8619
bond_coeff    1691   0.500000    28.1365
bond_coeff    1692   0.500000    24.6349
bond_coeff    1693   0.500000    22.5527
bond_coeff    1694   0.500000    19.2498
bond_coeff    1695   0.500000    28.3691
bond_coeff    1696   0.500000    11.5773
bond_coeff    1697   0.500000    16.7302
bond_coeff    1698   0.500000    26.8267
bond_coeff    1699   0.500000    17.9206
bond_coeff    1700   0.500000    19.7465
bond_coeff    1701   0.500000    22.8740
bond_coeff    1702   0.500000    16.1750
bond_coeff    1703   0.500000    15.1939
bond_coeff    1704   0.500000    23.6254
bond_coeff    1705   0.500000    28.1159
bond_coeff    1706   0.500000    25.6399
bond_coeff    1707   0.500000    29.4261
bond_coeff    1708   0.500000    29.9783
bond_coeff    1709   0.500000    26.7721
bond_coeff    1710   0.500000    26.6867
bond_coeff    1711   0.500000    22.2642
bond_coeff    1712   0.500000    28.3559
bond_coeff    1713   0.500000    13.8092
bond_coeff    1714   0.500000    24.3026
bond_coeff    1715   0.500000    13.6411
bond_coeff    1716   0.500000    17.7424
bond_coeff    1717   0.500000    23.3683
bond_coeff    1718   0.500000    15.1767
bond_coeff    1719   0.500000    11.0466
bond_coeff    1720   0.500000    18.1372
bond_coeff    1721   0.500000    26.8100
bond_coeff    1722   0.500000    22.6702
bond_coeff    1723   0.500000    20.9866
bond_coeff    1724   0.500000    25.2084
bond_coeff    1725   0.500000    24.8020
bond_coeff    1726   0.500000    23.5823
bond_coeff    1727   0.500000    26.0264
bond_coeff    1728   0.500000    20.2582
bond_coeff    1729   0.500000    23.3772
bond_coeff    1730   0.500000    28.2073
bond_coeff    1731   0.500000    10.4513
bond_coeff    1732   0.500000    22.7092
bond_coeff    1733   0.500000     8.9592
bond_coeff    1734   0.500000    17.8316
bond_coeff    1735   0.500000    25.4944
bond_coeff    1736   0.500000    17.1924
bond_coeff    1737   0.500000    10.4402
bond_coeff    1738   0.500000    13.9619
bond_coeff    1739   0.500000    21.9133
bond_coeff    1740   0.500000    16.7496
bond_coeff    1741   0.500000    15.5824
bond_coeff    1742   0.500000    28.5617
bond_coeff    1743   0.500000    22.0168
bond_coeff    1744   0.500000    19.1932
bond_coeff    1745   0.500000    22.8419
bond_coeff    1746   0.500000    27.8489
bond_coeff    1747   0.500000    21.1351
bond_coeff    1748   0.500000    19.6840
bond_coeff    1749   0.500000    29.1315
bond_coeff    1750   0.500000    28.0864
bond_coeff    1751   0.500000    22.1069
bond_coeff    1752   0.500000    27.3132
bond_coeff    1753   0.500000    28.7038
bond_coeff    1754   0.500000    29.5650
bond_coeff    1755   0.500000    16.7576
bond_coeff    1756   0.500000    14.6440
bond_coeff    1757   0.500000    21.5009
bond_coeff    1758   0.500000    16.4437
bond_coeff    1759   0.500000    13.8648
bond_coeff    1760   0.500000    19.2060
bond_coeff    1761   0.500000    25.8266
bond_coeff    1762   0.500000    20.5769
bond_coeff    1763   0.500000    11.6756
bond_coeff    1764   0.500000    24.2626
bond_coeff    1765   0.500000    19.5530
bond_coeff    1766   0.500000    17.8989
bond_coeff    1767   0.500000    22.4195
bond_coeff    1768   0.500000    26.1131
bond_coeff    1769   0.500000    20.6170
bond_coeff    1770   0.500000    20.7849
bond_coeff    1771   0.500000    29.9988
bond_coeff    1772   0.500000    29.6618
bond_coeff    1773   0.500000    26.5379
bond_coeff    1774   0.500000    17.9564
bond_coeff    1775   0.500000    21.4907
bond_coeff    1776   0.500000    25.0851
bond_coeff    1777   0.500000    26.1483
bond_coeff    1778   0.500000    21.6112
bond_coeff    1779   0.500000    27.9836
bond_coeff    1780   0.500000    26.0523
bond_coeff    1781   0.500000    15.7232
bond_coeff    1782   0.500000     8.0772
bond_coeff    1783   0.500000    14.2965
bond_coeff    1784   0.500000    13.5373
bond_coeff    1785   0.500000    16.1622
bond_coeff    1786   0.500000    23.0204
bond_coeff    1787   0.500000    28.4516
bond_coeff    1788   0.500000    28.7219
bond_coeff    1789   0.500000    16.1146
bond_coeff    1790   0.500000    10.5542
bond_coeff    1791   0.500000    10.8904
bond_coeff    1792   0.500000    19.9194
bond_coeff    1793   0.500000    12.1518
bond_coeff    1794   0.500000    15.1681
bond_coeff    1795   0.500000    12.1349
bond_coeff    1796   0.500000    17.5304
bond_coeff    1797   0.500000    24.4594
bond_coeff    1798   0.500000    17.9660
bond_coeff    1799   0.500000    28.4510
bond_coeff    1800   0.500000    26.6133
bond_coeff    1801   0.500000    27.8451
bond_coeff    1802   0.500000    23.7979
bond_coeff    1803   0.500000    19.6190
bond_coeff    1804   0.500000    20.0064
bond_coeff    1805   0.500000    18.5987
bond_coeff    1806   0.500000    19.0154
bond_coeff    1807   0.500000    18.2264
bond_coeff    1808   0.500000    17.8742
bond_coeff    1809   0.500000    23.1535
bond_coeff    1810   0.500000    24.8627
bond_coeff    1811   0.500000    28.0052
bond_coeff    1812   0.500000    29.9858
bond_coeff    1813   0.500000    29.8601
bond_coeff    1814   0.500000    29.0964
bond_coeff    1815   0.500000    13.7678
bond_coeff    1816   0.500000    22.6076
bond_coeff    1817   0.500000    15.9903
bond_coeff    1818   0.500000    10.7325
bond_coeff    1819   0.500000    14.1311
bond_coeff    1820   0.500000    20.6975
bond_coeff    1821   0.500000    16.3802
bond_coeff    1822   0.500000     7.8605
bond_coeff    1823   0.500000    21.3945
bond_coeff    1824   0.500000    15.6295
bond_coeff    1825   0.500000    13.3619
bond_coeff    1826   0.500000    19.1850
bond_coeff    1827   0.500000    25.2364
bond_coeff    1828   0.500000    18.6820
bond_coeff    1829   0.500000    15.7484
bond_coeff    1830   0.500000    25.8137
bond_coeff    1831   0.500000    25.2995
bond_coeff    1832   0.500000    23.1578
bond_coeff    1833   0.500000    15.8316
bond_coeff    1834   0.500000    18.9492
[...]
pair_coeff   2931   3015   gauss/wall   -5.00    7.81   1.20   25.00
pair_coeff   2931   3016   gauss/wall   -5.00   13.77   1.20   25.00
pair_coeff   2931   3019   gauss/wall   -5.00   17.13   1.20   25.00
pair_coeff   2931   3020   gauss/wall   -5.00   12.84   1.20   25.00
pair_coeff   2931   3021   gauss/wall   -5.00   16.35   1.20   25.00
pair_coeff   2933   3002   gauss/wall   -5.00   16.84   1.20   25.00
pair_coeff   2933   3003   gauss/wall   -5.00    7.65   1.20   25.00
pair_coeff   2933   3004   gauss/wall   -5.00   12.06   1.20   25.00
pair_coeff   2933   3005   gauss/wall   -5.00   13.22   1.20   25.00
pair_coeff   2933   3006   gauss/wall   -5.00   11.07   1.20   25.00
pair_coeff   2933   3007   gauss/wall   -5.00   16.90   1.20   25.00
pair_coeff   2933   3014   gauss/wall   -5.00   11.27   1.20   25.00
pair_coeff   2933   3015   gauss/wall   -5.00    7.81   1.20   25.00
pair_coeff   2933   3016   gauss/wall   -5.00   13.77   1.20   25.00
pair_coeff   2933   3019   gauss/wall   -5.00   17.13   1.20   25.00
pair_coeff   2933   3020   gauss/wall   -5.00   12.84   1.20   25.00
pair_coeff   2933   3021   gauss/wall   -5.00   16.35   1.20   25.00
pair_coeff   2935   3002   gauss/wall   -5.00   16.84   1.20   25.00
pair_coeff   2935   3003   gauss/wall   -5.00    7.65   1.20   25.00
pair_coeff   2935   3004   gauss/wall   -5.00   12.06   1.20   25.00
pair_coeff   2935   3005   gauss/wall   -5.00   13.22   1.20   25.00
pair_coeff   2935   3006   gauss/wall   -5.00   11.07   1.20   25.00
pair_coeff   2935   3007   gauss/wall   -5.00   16.90   1.20   25.00
pair_coeff   2935   3014   gauss/wall   -5.00   11.27   1.20   25.00
pair_coeff   2935   3015   gauss/wall   -5.00    7.81   1.20   25.00
pair_coeff   2935   3016   gauss/wall   -5.00   13.77   1.20   25.00
pair_coeff   2935   3019   gauss/wall   -5.00   17.13   1.20   25.00
pair_coeff   2935   3020   gauss/wall   -5.00   12.84   1.20   25.00
pair_coeff   2935   3021   gauss/wall   -5.00   16.35   1.20   25.00
pair_coeff   2937   3002   gauss/wall   -5.00   16.84   1.20   25.00
pair_coeff   2937   3003   gauss/wall   -5.00    7.65   1.20   25.00
pair_coeff   2937   3004   gauss/wall   -5.00   12.06   1.20   25.00
pair_coeff   2937   3005   gauss/wall   -5.00   13.22   1.20   25.00
pair_coeff   2937   3006   gauss/wall   -5.00   11.07   1.20   25.00
pair_coeff   2937   3007   gauss/wall   -5.00   16.90   1.20   25.00
pair_coeff   2937   3014   gauss/wall   -5.00   11.27   1.20   25.00
pair_coeff   2937   3015   gauss/wall   -5.00    7.81   1.20   25.00
pair_coeff   2937   3016   gauss/wall   -5.00   13.77   1.20   25.00
pair_coeff   2937   3019   gauss/wall   -5.00   17.13   1.20   25.00
pair_coeff   2937   3020   gauss/wall   -5.00   12.84   1.20   25.00
pair_coeff   2937   3021   gauss/wall   -5.00   16.35   1.20   25.00
pair_coeff   2938   3002   gauss/wall   -5.00   16.84   1.20   25.00
pair_coeff   2938   3003   gauss/wall   -5.00    7.65   1.20   25.00
pair_coeff   2938   3004   gauss/wall   -5.00   12.06   1.20   25.00
pair_coeff   2938   3005   gauss/wall   -5.00   13.22   1.20   25.00
pair_coeff   2938   3006   gauss/wall   -5.00   11.07   1.20   25.00
pair_coeff   2938   3007   gauss/wall   -5.00   16.90   1.20   25.00
pair_coeff   2938   3014   gauss/wall   -5.00   11.27   1.20   25.00
pair_coeff   2938   3015   gauss/wall   -5.00    7.81   1.20   25.00
pair_coeff   2938   3016   gauss/wall   -5.00   13.77   1.20   25.00
pair_coeff   2938   3019   gauss/wall   -5.00   17.13   1.20   25.00
pair_coeff   2938   3020   gauss/wall   -5.00   12.84   1.20   25.00
pair_coeff   2938   3021   gauss/wall   -5.00   16.35   1.20   25.00
pair_coeff   2940   3002   gauss/wall   -5.00   16.84   1.20   25.00
pair_coeff   2940   3003   gauss/wall   -5.00    7.65   1.20   25.00
pair_coeff   2940   3004   gauss/wall   -5.00   12.06   1.20   25.00
pair_coeff   2940   3005   gauss/wall   -5.00   13.22   1.20   25.00
pair_coeff   2940   3006   gauss/wall   -5.00   11.07   1.20   25.00
pair_coeff   2940   3007   gauss/wall   -5.00   16.90   1.20   25.00
pair_coeff   2940   3014   gauss/wall   -5.00   11.27   1.20   25.00
pair_coeff   2940   3015   gauss/wall   -5.00    7.81   1.20   25.00
pair_coeff   2940   3016   gauss/wall   -5.00   13.77   1.20   25.00
pair_coeff   2940   3019   gauss/wall   -5.00   17.13   1.20   25.00
pair_coeff   2940   3020   gauss/wall   -5.00   12.84   1.20   25.00
pair_coeff   2940   3021   gauss/wall   -5.00   16.35   1.20   25.00
pair_coeff   2941   3002   gauss/wall   -5.00   16.84   1.20   25.00
pair_coeff   2941   3003   gauss/wall   -5.00    7.65   1.20   25.00
pair_coeff   2941   3004   gauss/wall   -5.00   12.06   1.20   25.00
pair_coeff   2941   3005   gauss/wall   -5.00   13.22   1.20   25.00
pair_coeff   2941   3006   gauss/wall   -5.00   11.07   1.20   25.00
pair_coeff   2941   3007   gauss/wall   -5.00   16.90   1.20   25.00
pair_coeff   2941   3014   gauss/wall   -5.00   11.27   1.20   25.00
pair_coeff   2941   3015   gauss/wall   -5.00    7.81   1.20   25.00
pair_coeff   2941   3016   gauss/wall   -5.00   13.77   1.20   25.00
pair_coeff   2941   3019   gauss/wall   -5.00   17.13   1.20   25.00
pair_coeff   2941   3020   gauss/wall   -5.00   12.84   1.20   25.00
pair_coeff   2941   3021   gauss/wall   -5.00   16.35   1.20   25.00
pair_coeff   2943   3002   gauss/wall   -5.00   16.84   1.20   25.00
pair_coeff   2943   3003   gauss/wall   -5.00    7.65   1.20   25.00
pair_coeff   2943   3004   gauss/wall   -5.00   12.06   1.20   25.00
pair_coeff   2943   3005   gauss/wall   -5.00   13.22   1.20   25.00
pair_coeff   2943   3006   gauss/wall   -5.00   11.07   1.20   25.00
pair_coeff   2943   3007   gauss/wall   -5.00   16.90   1.20   25.00
pair_coeff   2943   3014   gauss/wall   -5.00   11.27   1.20   25.00
pair_coeff   2943   3015   gauss/wall   -5.00    7.81   1.20   25.00
pair_coeff   2943   3016   gauss/wall   -5.00   13.77   1.20   25.00
pair_coeff   2943   3019   gauss/wall   -5.00   17.13   1.20   25.00
pair_coeff   2943   3020   gauss/wall   -5.00   12.84   1.20   25.00
pair_coeff   2943   3021   gauss/wall   -5.00   16.35   1.20   25.00
pair_coeff   2945   3002   gauss/wall   -5.00   16.84   1.20   25.00
pair_coeff   2945   3003   gauss/wall   -5.00    7.65   1.20   25.00
pair_coeff   2945   3004   gauss/wall   -5.00   12.06   1.20   25.00
pair_coeff   2945   3005   gauss/wall   -5.00   13.22   1.20   25.00
pair_coeff   2945   3006   gauss/wall   -5.00   11.07   1.20   25.00
pair_coeff   2945   3007   gauss/wall   -5.00   16.90   1.20   25.00
pair_coeff   2945   3014   gauss/wall   -5.00   11.27   1.20   25.00
pair_coeff   2945   3015   gauss/wall   -5.00    7.81   1.20   25.00
pair_coeff   2945   3016   gauss/wall   -5.00   13.77   1.20   25.00
pair_coeff   2945   3019   gauss/wall   -5.00   17.13   1.20   25.00
pair_coeff   2945   3020   gauss/wall   -5.00   12.84   1.20   25.00
pair_coeff   2945   3021   gauss/wall   -5.00   16.35   1.20   25.00
pair_coeff   2948   3002   gauss/wall   -5.00   16.84   1.20   25.00
pair_coeff   2948   3003   gauss/wall   -5.00    7.65   1.20   25.00
pair_coeff   2948   3004   gauss/wall   -5.00   12.06   1.20   25.00
pair_coeff   2948   3005   gauss/wall   -5.00   13.22   1.20   25.00
pair_coeff   2948   3006   gauss/wall   -5.00   11.07   1.20   25.00
pair_coeff   2948   3007   gauss/wall   -5.00   16.90   1.20   25.00
pair_coeff   2948   3014   gauss/wall   -5.00   11.27   1.20   25.00
pair_coeff   2948   3015   gauss/wall   -5.00    7.81   1.20   25.00
pair_coeff   2948   3016   gauss/wall   -5.00   13.77   1.20   25.00
pair_coeff   2948   3019   gauss/wall   -5.00   17.13   1.20   25.00
pair_coeff   2948   3020   gauss/wall   -5.00   12.84   1.20   25.00
pair_coeff   2948   3021   gauss/wall   -5.00   16.35   1.20   25.00
pair_coeff   2949   3002   gauss/wall   -5.00   16.84   1.20   25.00
pair_coeff   2949   3003   gauss/wall   -5.00    7.65   1.20   25.00
pair_coeff   2949   3004   gauss/wall   -5.00   12.06   1.20   25.00
pair_coeff   2949   3005   gauss/wall   -5.00   13.22   1.20   25.00
pair_coeff   2949   3006   gauss/wall   -5.00   11.07   1.20   25.00
pair_coeff   2949   3007   gauss/wall   -5.00   16.90   1.20   25.00
pair_coeff   2949   3014   gauss/wall   -5.00   11.27   1.20   25.00
pair_coeff   2949   3015   gauss/wall   -5.00    7.81   1.20   25.00
pair_coeff   2949   3016   gauss/wall   -5.00   13.77   1.20   25.00
pair_coeff   2949   3019   gauss/wall   -5.00   17.13   1.20   25.00
pair_coeff   2949   3020   gauss/wall   -5.00   12.84   1.20   25.00
pair_coeff   2949   3021   gauss/wall   -5.00   16.35   1.20   25.00
pair_coeff   2951   3002   gauss/wall   -5.00   16.84   1.20   25.00
pair_coeff   2951   3003   gauss/wall   -5.00    7.65   1.20   25.00
pair_coeff   2951   3004   gauss/wall   -5.00   12.06   1.20   25.00
pair_coeff   2951   3005   gauss/wall   -5.00   13.22   1.20   25.00
pair_coeff   2951   3006   gauss/wall   -5.00   11.07   1.20   25.00
pair_coeff   2951   3007   gauss/wall   -5.00   16.90   1.20   25.00
pair_coeff   2951   3014   gauss/wall   -5.00   11.27   1.20   25.00
pair_coeff   2951   3015   gauss/wall   -5.00    7.81   1.20   25.00
pair_coeff   2951   3016   gauss/wall   -5.00   13.77   1.20   25.00
pair_coeff   2951   3019   gauss/wall   -5.00   17.13   1.20   25.00
pair_coeff   2951   3020   gauss/wall   -5.00   12.84   1.20   25.00
pair_coeff   2951   3021   gauss/wall   -5.00   16.35   1.20   25.00
pair_coeff   2954   3002   gauss/wall   -5.00   16.84   1.20   25.00
pair_coeff   2954   3003   gauss/wall   -5.00    7.65   1.20   25.00
pair_coeff   2954   3004   gauss/wall   -5.00   12.06   1.20   25.00
pair_coeff   2954   3005   gauss/wall   -5.00   13.22   1.20   25.00
pair_coeff   2954   3006   gauss/wall   -5.00   11.07   1.20   25.00
pair_coeff   2954   3007   gauss/wall   -5.00   16.90   1.20   25.00
pair_coeff   2954   3014   gauss/wall   -5.00   11.27   1.20   25.00
pair_coeff   2954   3015   gauss/wall   -5.00    7.81   1.20   25.00
pair_coeff   2954   3016   gauss/wall   -5.00   13.77   1.20   25.00
pair_coeff   2954   3019   gauss/wall   -5.00   17.13   1.20   25.00
pair_coeff   2954   3020   gauss/wall   -5.00   12.84   1.20   25.00
pair_coeff   2954   3021   gauss/wall   -5.00   16.35   1.20   25.00
pair_coeff   2957   3002   gauss/wall   -5.00   16.84   1.20   25.00
pair_coeff   2957   3003   gauss/wall   -5.00    7.65   1.20   25.00
pair_coeff   2957   3004   gauss/wall   -5.00   12.06   1.20   25.00
pair_coeff   2957   3005   gauss/wall   -5.00   13.22   1.20   25.00
pair_coeff   2957   3006   gauss/wall   -5.00   11.07   1.20   25.00
pair_coeff   2957   3007   gauss/wall   -5.00   16.90   1.20   25.00
pair_coeff   2957   3014   gauss/wall   -5.00   11.27   1.20   25.00
pair_coeff   2957   3015   gauss/wall   -5.00    7.81   1.20   25.00
pair_coeff   2957   3016   gauss/wall   -5.00   13.77   1.20   25.00
pair_coeff   2957   3019   gauss/wall   -5.00   17.13   1.20   25.00
pair_coeff   2957   3020   gauss/wall   -5.00   12.84   1.20   25.00
pair_coeff   2957   3021   gauss/wall   -5.00   16.35   1.20   25.00
pair_coeff   2960   3002   gauss/wall   -5.00   16.84   1.20   25.00
pair_coeff   2960   3003   gauss/wall   -5.00    7.65   1.20   25.00
pair_coeff   2960   3004   gauss/wall   -5.00   12.06   1.20   25.00
pair_coeff   2960   3005   gauss/wall   -5.00   13.22   1.20   25.00
pair_coeff   2960   3006   gauss/wall   -5.00   11.07   1.20   25.00
pair_coeff   2960   3007   gauss/wall   -5.00   16.90   1.20   25.00
pair_coeff   2960   3014   gauss/wall   -5.00   11.27   1.20   25.00
pair_coeff   2960   3015   gauss/wall   -5.00    7.81   1.20   25.00
pair_coeff   2960   3016   gauss/wall   -5.00   13.77   1.20   25.00
pair_coeff   2960   3019   gauss/wall   -5.00   17.13   1.20   25.00
pair_coeff   2960   3020   gauss/wall   -5.00   12.84   1.20   25.00
pair_coeff   2960   3021   gauss/wall   -5.00   16.35   1.20   25.00
pair_coeff   2963   3002   gauss/wall   -5.00   16.84   1.20   25.00
pair_coeff   2963   3003   gauss/wall   -5.00    7.65   1.20   25.00
pair_coeff   2963   3004   gauss/wall   -5.00   12.06   1.20   25.00
pair_coeff   2963   3005   gauss/wall   -5.00   13.22   1.20   25.00
pair_coeff   2963   3006   gauss/wall   -5.00   11.07   1.20   25.00
pair_coeff   2963   3007   gauss/wall   -5.00   16.90   1.20   25.00
pair_coeff   2963   3014   gauss/wall   -5.00   11.27   1.20   25.00
pair_coeff   2963   3015   gauss/wall   -5.00    7.81   1.20   25.00
pair_coeff   2963   3016   gauss/wall   -5.00   13.77   1.20   25.00
pair_coeff   2963   3019   gauss/wall   -5.00   17.13   1.20   25.00
pair_coeff   2963   3020   gauss/wall   -5.00   12.84   1.20   25.00
pair_coeff   2963   3021   gauss/wall   -5.00   16.35   1.20   25.00

group			Nup155 type <> 1 279
13392 atoms in group Nup155
group			Nup93 type <> 280 443
5248 atoms in group Nup93
group			Nup205 type <> 444 847
12928 atoms in group Nup205
group			Nup188-ntd type <> 2468 2723
4096 atoms in group Nup188-ntd
group                   Nup188-ctd type <> 2724 2818
1520 atoms in group Nup188-ctd
group                   Nup35 type <> 2819 2866
1536 atoms in group Nup35
group			Nup98 type <> 2867 2990
5952 atoms in group Nup98

group                   Nup133-NTD type <> 848 948
3232 atoms in group Nup133-NTD
group                   Nup133-CTD type <> 949 1079
4192 atoms in group Nup133-CTD
group                   Nup107-NTD type <> 1080 1199
3840 atoms in group Nup107-NTD
group                   Nup107-CTD type <> 1200 1264
2080 atoms in group Nup107-CTD
group                   Nup96 type <> 1265 1452
6016 atoms in group Nup96
group                   Sec13 type <> 1453 1517
2080 atoms in group Sec13
group                   Seh1 type <> 1518 1589
2304 atoms in group Seh1
group                   Nup85 type <> 1590 1723
4288 atoms in group Nup85
group                   Nup43 type <> 1724 1799
2432 atoms in group Nup43
group                   Nup160-NTD type <> 1800 1854
1760 atoms in group Nup160-NTD
group                   Nup160-CTD type <> 1855 2071
6944 atoms in group Nup160-CTD
group                   Nup37 type <> 2072 2152
2592 atoms in group Nup37

group			Nup54 type <> 2153 2254
3264 atoms in group Nup54
group			Nup58 type <> 2255 2374
3840 atoms in group Nup58
group			Nup62 type <> 2375 2467
2976 atoms in group Nup62

group                   Mem type <> 2991 2993
368348 atoms in group Mem
group                   Capsid type <> 2994 3039
60444 atoms in group Capsid

neigh_modify            exclude molecule/intra Nup155
neigh_modify            exclude molecule/intra Nup93
neigh_modify            exclude molecule/intra Nup205
neigh_modify            exclude molecule/intra Nup188-ntd
neigh_modify            exclude molecule/intra Nup188-ctd
neigh_modify            exclude molecule/intra Nup35

neigh_modify            exclude molecule/intra Nup133-NTD
neigh_modify            exclude molecule/intra Nup133-CTD
neigh_modify            exclude molecule/intra Nup107-NTD
neigh_modify            exclude molecule/intra Nup107-CTD
neigh_modify            exclude molecule/intra Nup96
neigh_modify            exclude molecule/intra Sec13
neigh_modify            exclude molecule/intra Seh1
neigh_modify            exclude molecule/intra Nup85
neigh_modify            exclude molecule/intra Nup43
neigh_modify            exclude molecule/intra Nup160-NTD
neigh_modify            exclude molecule/intra Nup160-CTD
neigh_modify            exclude molecule/intra Nup37

neigh_modify		exclude molecule/intra Nup54
neigh_modify            exclude molecule/intra Nup58
neigh_modify            exclude molecule/intra Nup62

neigh_modify            exclude molecule/intra Capsid

group                   Stemtip union Nup133-NTD Nup133-CTD Nup107-CTD
9504 atoms in group Stemtip
group                   Stembase union Nup107-NTD Nup96 Sec13
11936 atoms in group Stembase
group                   Shortarm union Seh1 Nup85 Nup43
9024 atoms in group Shortarm
group                   Longarm union Nup160-CTD Nup160-NTD Nup37
11296 atoms in group Longarm
group			Nup188 union Nup188-ntd Nup188-ctd
5616 atoms in group Nup188

group                   Ycomplex union Stemtip Stembase Shortarm Longarm
41760 atoms in group Ycomplex
group			FGNup union Nup54 Nup58 Nup62
10080 atoms in group FGNup

timestep  		50.0 			#timestep of 50 fs

comm_style              tiled
comm_modify             mode single cutoff 70.00

compute                 1 Capsid pair gauss/wall

thermo       		1000
thermo_style            custom step spcpu temp ke pe etotal epair enthalpy pxx pyy pzz lx ly lz c_1
thermo_modify           flush yes

fix                    	wallEdge all wall/reflect zlo EDGE zhi EDGE units box
fix                     m1 Capsid momentum 100000 linear 1 1 1 angular
fix                     b1 all balance 100000 1.05 rcb

compute                 CapsidCOM Capsid com
variable                zCapsid equal c_CapsidCOM[3]
compute                 ChannelCOM Ycomplex com
variable                zChannel equal c_ChannelCOM[3]
variable                distz equal "c_CapsidCOM[3]-c_ChannelCOM[3]"

velocity                all create ${TEMP} ${SEED} mom yes rot yes dist gaussian
velocity                all create 300 ${SEED} mom yes rot yes dist gaussian
velocity                all create 300 12392 mom yes rot yes dist gaussian

reset_timestep          0

fix                     3 all nph x ${PRESS} ${PRESS} 200000.0 y ${PRESS} ${PRESS} 200000.0 couple xy dilate Mem
fix                     3 all nph x 0 ${PRESS} 200000.0 y ${PRESS} ${PRESS} 200000.0 couple xy dilate Mem
fix                     3 all nph x 0 0 200000.0 y ${PRESS} ${PRESS} 200000.0 couple xy dilate Mem
fix                     3 all nph x 0 0 200000.0 y 0 ${PRESS} 200000.0 couple xy dilate Mem
fix                     3 all nph x 0 0 200000.0 y 0 0 200000.0 couple xy dilate Mem
fix                     4 all langevin ${TEMP} ${TEMP} 100000.0 ${SEED4} zero yes
fix                     4 all langevin 300 ${TEMP} 100000.0 ${SEED4} zero yes
fix                     4 all langevin 300 300 100000.0 ${SEED4} zero yes
fix                     4 all langevin 300 300 100000.0 19494 zero yes

dump            	1 all custom ${dumptrj} Nup1.lammpstrj id mol type xs ys zs
dump            	1 all custom 500000 Nup1.lammpstrj id mol type xs ys zs
dump_modify 		1 sort id

fix                     scales all print 1000 "${vstep} ${zCapsid} ${zChannel} ${distz}" file Docking.txt screen no

restart                 ${RESTART} config
restart                 5000000 config
run 			${RUNTIME}
run 			35000000
Neighbor list info ...
  update every 1 steps, delay 1 steps, check yes
  max neighbors/atom: 2000, page size: 100000
  master list distance cutoff = 50
  ghost atom cutoff = 70
  binsize = 25, bins = 81 81 120
  5 neighbor lists, perpetual/occasional/extra = 5 0 0
  (1) pair soft, perpetual, skip from (5)
      attributes: half, newton on
      pair build: skip
      stencil: none
      bin: none
  (2) pair gauss/wall, perpetual, skip from (5)
      attributes: half, newton on
      pair build: skip
      stencil: none
      bin: none
  (3) pair lj/cut/soft, perpetual, skip from (5)
      attributes: half, newton on
      pair build: skip
      stencil: none
      bin: none
  (4) pair john4, perpetual, skip from (5)
      attributes: half, newton on
      pair build: skip
      stencil: none
      bin: none
  (5) neighbor class addition, perpetual
      attributes: half, newton on
      pair build: half/bin/newton
      stencil: half/bin/3d/newton
      bin: standard
WARNING: Inconsistent image flags (../domain.cpp:812)
Per MPI rank memory allocation (min/avg/max) = 1736.0 | 1736.0 | 1736.0 Mbytes
Step S/CPU Temp KinEng PotEng TotEng E_pair Enthalpy Pxx Pyy Pzz Lx Ly Lz c_1 
       0            0          300    469748.54   -494845.81   -25097.268   -937741.67    134998.91    0.8990323   0.88309774   0.90153323       2022.5       2022.5         3000   -79571.329 
